48
Lattice="8.838089942932129 0.0 -5.102673530578613 3.099999979481495e-15 19.10738754272461 1.2000000467046398e-15 0.0 0.0 40.821388244628906" Properties=species:S:1:pos:R:3:move_mask:L:1:momenta:R:3:forces:R:3:energies:R:1 adsorbate_info="_JSON {\"site\": {\"coordinates\": [4.419044969999999, 1.1863769363360458e-07, 21.941497799999997], \"connectivity\": 2, \"topology\": [31, 40], \"n_vector\": [0.9374845961981781, -0.13552161772236349, 0.32055658318158475], \"h_vector\": [0.5976044121351668, 0.78221764674428, -0.1760810032866196], \"site_formula\": {\"Ag\": 2}}, \"smiles\": \"S1S\", \"mdf\": 0.6266657179587145, \"adsorbate_formula\": \"HN2\"}" bond_change_count=0 energy=-117.5006103515625 stress="8.81800806382671e-05 -1.175072156911483e-05 -3.68427463399712e-05 -1.175072156911483e-05 0.00010211250628344715 8.022838301258162e-06 -3.68427463399712e-05 8.022838301258162e-06 5.2401017455849797e-05" free_energy=-117.5006103515625 pbc="T T F"
Sr       4.78907662       4.48079964      20.39572306  T      -0.60028589      -0.18857913       0.21399790       0.02603231       0.00337553       0.02415781      -2.11560416
Sr       0.54692739       4.61844495      20.48895436  T       1.66101714       0.88222527       2.40545939       0.00214449      -0.00100328       0.00021082      -2.37917948
Sr       2.73606867       4.58265292      16.56595453  T      -1.22705044       0.99693995      -0.24621219       0.00059741       0.00004341       0.00564761      -2.65133333
Sr       6.71353140       1.68878336      18.01059983  T       2.64388358      -0.67572427      -0.31757439       0.00265425       0.02679320       0.00906874      -2.55578208
Sr       2.78855278       1.84793837      23.73670778  T       0.39721614      -3.09599159      -0.54218400      -0.01799172       0.01250303      -0.00983408      -3.67547989
Sr       8.70874596       1.79635477      11.73008633  F       0.00000000       0.00000000       0.00000000      -0.01495382      -0.12016118       0.04714888      -1.96061754
Sr       5.89206028       3.18456459      14.28748608  F       0.00000000       0.00000000       0.00000000      -0.38460004       0.08582458      -0.19497710      -2.45718479
Sr       5.89206028      18.36384964      14.28748608  F       0.00000000       0.00000000       0.00000000       0.08236898      -0.17140466      -0.11281621      -2.25538206
Sr       5.89206028       7.11266756      14.28748608  F       0.00000000       0.00000000       0.00000000      -0.05448929       0.01118654      -0.29273546      -2.56217718
Sr       8.03166008      10.94190311      15.67213917  F       0.00000000       0.00000000       0.00000000      -0.18601415      -0.08448236      -0.33399338      -2.70058513
Sr       3.62311602      10.94190311      15.44810772  F       0.00000000       0.00000000       0.00000000      -0.22372386       0.01976440      -0.02063745      -2.30041146
Sr       6.02140427      10.94190311      11.74221230  F       0.00000000       0.00000000       0.00000000       0.26175803       0.12175903       0.29200605      -1.18980050
Sr       0.66041169       8.27181907      17.70883700  T       0.72252862      -0.64058756      -0.50774769      -0.00945931       0.00368688      -0.00852625      -2.36259699
Sr       4.97800905       8.10534711      18.00658341  T       0.10479952       0.59313344       1.01093243      -0.00398573       0.00022068      -0.02284645      -2.61447358
Sr       2.77669186       8.18868112      21.82708620  T      -0.98154653      -1.46687961       0.79920860      -0.00472257       0.00236229       0.00160583      -2.09727263
Sr      -0.36376366       9.60753424      24.60182662  T       0.15869075      -0.42716980       1.44408724      -0.00977185       0.01422618       0.02208738      -2.17173266
Sr      -0.35548349       5.67732580      24.32744933  T      -0.43040884       1.01363067      -0.04956141       0.00555930      -0.00928085       0.01808336      -1.88676763
Sr      -0.01281563      13.62376240      24.25660300  T       1.98487750       2.11695654      -0.48774685       0.00602847       0.00440690       0.01450956      -2.13377690
Sr       2.13959980      17.31103325      15.67213917  F       0.00000000       0.00000000       0.00000000      -0.10106537      -0.05798540       0.15954790      -2.21088219
Sr       6.48089823      17.20077748      20.32249694  T      -1.22736578      -0.15155015       0.28228899      -0.00683188      -0.01684917       0.00001115      -2.19281912
Sr       0.21423984      17.30923918      21.93013268  T      -1.89501509      -1.37604112      -1.93485059       0.00977804      -0.01057950      -0.01353459      -2.45252061
Sr       3.75246048      14.53461266      12.90283394  F       0.00000000       0.00000000       0.00000000       0.04103236      -0.15384609       0.27723324      -1.10881352
Sr       8.16100407      14.53461266      13.12686539  F       0.00000000       0.00000000       0.00000000       0.03819224       0.09961647      -0.22597954      -2.36309719
Sr       5.66736512      14.61745544      16.52678688  T      -1.79075177       0.28968675       0.13921229       0.01605411      -0.00092164       0.00808607      -2.62069082
Sr       2.92901610      15.81153517      19.41904878  T      -0.01328714      -1.93413841       0.54328958       0.00490670      -0.01221807      -0.00138354      -2.67605424
Sr       3.06419655      11.85483982      19.58380658  T      -0.70959895       0.68810275       0.70250582      -0.00033136      -0.01513713      -0.00117317      -2.75547624
Sr       2.85941554       0.77104974      19.19130920  T      -0.72664536      -0.39827261      -1.12553548      -0.02072483       0.01907383      -0.03305085      -2.85951400
Ag       8.06297779       5.15946722      12.40035057  F       0.00000000       0.00000000       0.00000000       0.16137189      -0.14043489       0.15391502      -1.85604310
Ag       6.12214577       4.92042102      17.11419128  T       0.58857022      -0.95810980      -0.66069418       0.00697377       0.00735510      -0.00389514      -2.21696186
Ag       3.17229390       5.15946722      13.35098457  F       0.00000000       0.00000000       0.00000000       0.24474522       0.27442497       0.37465435      -1.39608872
Ag       3.61812471       1.30002282      16.02195579  T      -1.44127557       2.17265881       0.22804594       0.00408523       0.00139229       0.01077778      -2.07842398
Ag       5.36002471       1.28750934      21.13036073  T       7.07004474       9.64257839     -11.05351402       0.02925199       0.03602443      -0.05235262      -2.04118514
Ag       8.61182594       1.20966172      15.22398853  F       0.00000000       0.00000000       0.00000000      -0.21661645       0.06105958      -0.15641195      -2.18633366
Ag       1.76683398      11.30607733      22.63749322  T      -1.31593888      -1.02647885      -0.40308133      -0.01807829       0.00509601       0.01471755      -1.83897924
Ag       0.55065211      11.56702362      17.32041595  T      -2.77842872      -1.74698721       1.97933086      -0.00607146       0.00237619      -0.00067169      -2.02135253
Ag       6.01754582      11.52932289      18.21645515  T       2.20670698      -0.17284342       0.99029461       0.01343187       0.00646558       0.01401668      -2.19380569
Ag       6.12260694       7.45437412      20.90330489  T       0.38085287       3.11096274       0.61515562       0.00023665      -0.01766162      -0.00065369      -1.68235910
Ag       8.34256558       7.67573717      16.54907716  T       0.38958865      -1.02785436      -1.72639773       0.00146563       0.00504320       0.02364039      -2.16069913
Ag       2.71976614       7.57879066      15.22398853  F       0.00000000       0.00000000       0.00000000       0.24304752      -0.00181028       0.01790666      -1.90432775
Ag       5.05803079      17.81580667      17.39109111  T      -0.72257606      -1.05495172       1.81255930       0.02253786       0.01433700      -0.00771245      -2.22604322
Ag       3.52191457      18.00404725      21.74168955  T      -7.01011397      -9.37728081      -8.45136567       0.00238958      -0.01512160       0.01703629      -2.08598065
Ag       0.24778816      17.83751923      18.46218620  T       0.50794996      -0.77961672       1.55738930       0.01042355       0.00170708       0.02015636      -2.15909529
Ag       0.76255534      13.96935982      21.18372159  T       0.10527418      -1.17403728      -0.26079783      -0.01118962       0.00617806      -0.00548611      -2.15039372
Ag       2.31647016      13.93889117      16.36048819  T      -1.43140668      -1.70033947       0.55111527      -0.00019800      -0.00630256       0.00442778      -2.10738230
Ag       5.69126356      13.99092476      19.73087377  T       2.01685980      -1.19362653      -0.17809639      -0.00377728      -0.00182519      -0.01271866      -1.95298374
N        4.56206410       0.39214100      22.99817128  T      -3.09109656      -0.82705567       8.65109149      -0.01391488      -0.02472651       0.01461318      -6.80973911
N        4.62713877       0.50922054      24.29389987  T       0.04049990       0.00986754      10.44314594       0.02590381       0.01620064      -0.00508827      -7.88741398
H        5.28227243      -0.10869438      24.77137529  T       0.68979626       1.89812964       0.07757043       0.04554039      -0.00075108      -0.02878773      -3.23499465
