75
Lattice="15.477487564086914 0.0 0.5151416063308716 3.713155508041382 10.794244766235352 0.5151416063308716 0.0 0.0 29.30695915222168" Properties=species:S:1:pos:R:3:move_mask:L:1:momenta:R:3:forces:R:3:energies:R:1 adsorbate_info="_JSON {\"site\": {\"coordinates\": [7.87498379, 9.59725761, 16.79029655], \"connectivity\": 1, \"topology\": [22], \"n_vector\": [0.243807763828771, -0.18102508588306218, 0.9527789316404116], \"h_vector\": [1.0, 0.0, 0.0], \"site_formula\": {\"Ti\": 1}}, \"smiles\": \"Cl\", \"mdf\": 1.7234870516637404, \"adsorbate_formula\": \"C2H6N2O\"}" bond_change_count=0 energy=-489.8631286621094 stress="0.007986234501004219 0.0006438339478336275 0.0003764647408388555 0.0006438339478336275 0.008665112778544426 0.0005423999391496181 0.0003764647408388555 0.0005423999391496181 0.0011484898859634995" free_energy=-489.8631286621094 pbc="T T T"
Bi       9.17466232       7.46334390      14.86700662  T      -0.55871808      -2.14859463      -0.93742664      -0.05442703       0.02950934       0.01724952      -6.74226952
Bi       0.82545853       0.05622002      12.69866753  F       0.00000000       0.00000000       0.00000000      -0.15550536      -0.00266405      -0.93113261      -5.48494673
Bi       2.85064740       0.75265762      18.24566612  T       2.24550830      -1.33842031      -1.59605845       0.00068711       0.01088791      -0.01648825      -4.93895674
Bi       6.01987314       4.14839216      16.82455165  T       1.37661361       0.09543835      -2.89074227       0.00125797      -0.04350442       0.01132607      -5.74469185
Bi       2.23964865       3.37275572      14.83666287  T       1.70583202      -1.53119890       0.03588686      -0.02323786      -0.00761950      -0.07658020      -6.62760639
Bi       5.36463547       6.69018269      13.39567089  F       0.00000000       0.00000000       0.00000000      -0.11908410       0.19058713      -1.12503278      -5.89562607
Bi       8.45968246      10.06338406      11.78936005  F       0.00000000       0.00000000       0.00000000       0.09624775      -0.01589408      -0.34672260      -4.90380096
Bi      10.47839284      10.83911802      17.47724925  T       1.47265328      -0.64983427      -2.90057074       0.03644878       0.08751059      -0.00669074      -5.51738405
Ti       8.74008924       5.59158193      17.25981155  T       0.73535114      -0.18775227       1.20400400       0.01068828      -0.00497788       0.01692031      -8.13535881
Ti       4.14730675       8.70765984      15.33793648  T       0.37084877       0.35005612       0.93114137       0.01841154       0.01211298      -0.00850224      -7.48736572
Ti       3.56686091       1.26976061      13.20247269  F       0.00000000       0.00000000       0.00000000       0.37289244      -0.04012357       0.10091217      -7.03890800
Ti       6.66190815       4.64296198      11.59616184  F       0.00000000       0.00000000       0.00000000       0.43393418      -0.39763141       1.13726640      -6.12028456
Ti       7.63331395       4.95533202      14.25315031  T       0.08270372      -0.47094774      -1.47627465       0.00650127      -0.01925600      -0.00448096      -7.45522785
Ti       3.04546547       8.33600903      12.38326454  F       0.00000000       0.00000000       0.00000000      -0.26579171       0.05336361       0.89056182      -6.36743832
Ti       5.06504139       8.93473910      17.87674453  T       0.53414505       0.08837200       0.45902784       0.00752710      -0.01526529       0.01504044      -7.30855560
Ti       4.52530925       1.48551311      15.78561335  T      -0.66455092      -2.08076557      -0.00701875       0.01813703      -0.01820850       0.01051825      -7.51386499
Ti       6.41583238       7.08494109      16.26881559  T      -0.07354043       0.63741102       0.33658361       0.04792219      -0.00573123       0.00494987      -8.16846371
Ti       9.46907198      10.39002837      14.64659124  T       0.90674138       0.81180696      -0.15862751      -0.01204734      -0.01197755      -0.00892358      -7.69845200
Ti       1.12472832       3.04373622      12.22225189  F       0.00000000       0.00000000       0.00000000      -0.58133590       0.41020679       0.01601617      -6.34100437
Ti       3.23674682       3.66738272      17.48767110  T       1.35847275       1.16849838      -0.36295418       0.05405389      -0.01058909       0.02158695      -6.60505295
Ti       2.62323332       5.47664213      12.89186573  F       0.00000000       0.00000000       0.00000000      -0.34506255       0.11775546      -0.29464033      -6.26431942
Ti       4.21898160       6.18601945      18.19322631  T       0.68201377       0.12954630       1.33447538       0.00043291       0.02214786      -0.00306684      -6.67649126
Ti       7.71033215       9.45412458      16.83444033  T       1.22895443       0.50437872       0.23207788      -0.00315344      -0.01314211      -0.00530386      -7.99051428
Ti       7.15020850       2.12909526      14.65507962  T      -0.26744846       0.25465558      -1.12065182       0.00763217      -0.03797385      -0.00586858      -7.32991600
Ti       3.73585665       5.88289505      15.73529830  T       0.57547010       1.16982909       0.12201098       0.02639973      -0.00319690      -0.00142097      -7.40271473
Ti       6.82130073       9.21190177      14.18268760  T       0.17242735       0.75805281      -1.50911341       0.01449758      -0.01583451       0.01929523      -7.64941931
Ti       6.23967600       1.78359568      12.10476303  F       0.00000000       0.00000000       0.00000000       0.04666116       0.49532351       0.68004984      -6.80985641
Ti       8.29432038       2.54170414      17.23208765  T       0.35770085      -0.43490439       0.23434968      -0.00413394      -0.03390663       0.02159286      -6.88940620
Ti       5.06536579       3.70266676      13.87208557  F       0.00000000       0.00000000       0.00000000       0.19091195      -0.26706159      -0.32957906      -7.07042599
Ti       8.16041279       7.07586813      12.26577568  F       0.00000000       0.00000000       0.00000000       0.15591341      -0.54269308       0.33482003      -6.35783291
Ti       9.99596521       8.03640902      17.55004265  T      -1.02541250       0.67580366      -0.36736182      -0.05062294      -0.05374176       0.04942399      -7.69489384
Ti       1.82617514       0.38976688      15.47643424  T      -0.60992324      -1.26881208      -0.33523806       0.00599600      -0.01084003      -0.02280079      -7.59176254
Bi      16.81776407       7.41861457      15.22473631  T       1.52590241       1.02957284      -1.79057506      -0.00229180       0.02118485       0.00103258      -6.52466297
Bi       8.56420231       0.05622002      12.95623875  F       0.00000000       0.00000000       0.00000000      -0.17430502       0.12404203      -1.08130753      -5.47060394
Bi      10.44792620       0.81303996      18.51032719  T      -1.26047295      -2.06241169       0.50296091       0.02913094      -0.00603405      -0.00769146      -4.88356400
Bi      13.81584226       4.16456762      17.14570830  T      -0.38726543      -0.55127298      -2.81830193      -0.00397246       0.03149867      -0.02165082      -5.58329010
Bi       9.98829645       3.41442193      15.10359569  T      -1.04399553      -2.94915691      -1.21861795      -0.02005254       0.03346559      -0.01987616      -6.57866478
Bi      13.10337925       6.69018269      13.65324116  F       0.00000000       0.00000000       0.00000000      -0.07484440       0.12771010      -1.08401084      -5.83197641
Bi      16.19842720      10.06338406      12.04693127  F       0.00000000       0.00000000       0.00000000       0.06730597      -0.07150115      -0.19824585      -4.90907431
Bi      18.18829388      10.79603804      17.84878801  T       0.31846945       1.07042039       0.85603231       0.00780349      -0.00910277       0.00034443      -5.34734297
Ti      16.80884519       5.32767736      17.47239011  T      -0.04371628       0.26055073      -0.03596699      -0.02414906       0.00977020       0.01408815      -6.39115906
Ti      11.90762559       8.72854719      15.55078795  T       1.31672883      -0.10635550      -1.05932518      -0.00258479       0.00875376       0.00583211      -7.59728050
Ti      11.30560493       1.26976061      13.46004295  F       0.00000000       0.00000000       0.00000000       0.36120555      -0.04378673       0.05709469      -7.04125881
Ti      14.40065193       4.64296198      11.85373306  F       0.00000000       0.00000000       0.00000000       0.45078471      -0.38753846       0.85766226      -6.19103956
Ti      15.33699473       4.87200379      14.41306271  T      -0.69105100      -0.71644312      -0.47599840       0.03260792      -0.01574576       0.01286745      -7.27676773
Ti      10.78420925       8.33600903      12.64083481  F       0.00000000       0.00000000       0.00000000      -0.03175998       0.17195171       0.43839034      -6.43571186
Ti      12.71919867       8.93485876      18.02064235  T      -0.42197208       0.41992602      -0.16517512      -0.04420859       0.00802557       0.00063592      -7.10196114
Ti      12.24964053       1.56184767      16.06820392  T       0.20925403       0.13752213      -1.88503636       0.01710805       0.00048947       0.00193495      -7.40014744
Ti      14.04030379       7.13678666      16.55927368  T      -0.04791483       1.82076006       0.36435255      -0.00980765       0.02615595      -0.00702310      -7.10506248
Ti      17.22230184      10.42213992      14.91332165  T       0.18771797      -0.70312793       0.03553401      -0.00123888      -0.02228247      -0.00982445      -7.53665638
Ti       8.86347198       3.04373622      12.47982311  F       0.00000000       0.00000000       0.00000000      -0.56815708       0.44585860       0.18042751      -6.33302116
Ti      10.88796497       3.74489467      17.76750049  T       0.36547830      -0.08819298      -1.71213520       0.03727063      -0.02735680       0.00792521      -6.63755655
Ti      10.36197758       5.47664213      13.14943600  F       0.00000000       0.00000000       0.00000000      -0.34919804       0.02422988      -0.46026546      -6.28367233
Ti      11.89886364       6.24175768      18.48681142  T       2.57867007      -1.48443099       1.60420959      -0.00083138       0.00286839      -0.00188187      -6.87942696
Ti      15.38211927       9.59152059      17.06489880  T      -0.93921907       0.33363739      -0.16398112       0.02260911       0.01843823       0.00367598      -6.99871922
Ti      14.89862384       2.08271804      14.95994972  T       0.60015428      -0.34321363       0.61792859       0.01694921      -0.00988498       0.00844440      -7.34502697
Ti      11.39598907       5.92109941      16.02241871  T      -0.33369528       0.94540501       0.45886354       0.03990046      -0.02599437       0.03902495      -7.61783791
Ti      14.55988051       9.27667094      14.50731134  T      -0.86106264       1.30397897       0.11174652      -0.02118945      -0.00653827       0.00183967      -7.38968468
Ti      13.97841930       1.78359568      12.36233425  F       0.00000000       0.00000000       0.00000000       0.12991655       0.43247309       0.60548544      -6.82038403
Ti      16.13327316       2.45120685      17.56931290  T       0.92150537      -0.31795356      -0.28115040      -0.03098235      -0.01358047       0.02632219      -6.75961447
Ti      12.85450481       3.62107565      14.05559855  T      -0.14909637      -0.76422967      -1.30951065       0.00427565      -0.00103489       0.00758609      -7.03855896
Ti      15.89915657       7.07586813      12.52334595  F       0.00000000       0.00000000       0.00000000       0.24495193      -0.49778816       0.48310131      -6.33322525
Ti      17.86899514       7.85306894      17.83655226  T      -1.43307714      -0.65419202       0.09979956      -0.00226788      -0.00263077      -0.00554816      -6.55968809
Ti       9.56150844       0.46219386      15.70494740  T       0.20512495       0.95267170      -0.53187709      -0.01581717      -0.01594822       0.00354862      -7.48567104
O        7.96616351       7.37241588      17.53169631  T       1.00813647      -2.51239034       2.45997560       0.00494838       0.00797477      -0.01994219      -3.64674401
N        8.12759630       8.31629731      18.40080675  T      -2.74093168       0.36233284       1.90482451       0.00426531      -0.01355882      -0.02306271      -6.64404678
N        8.93289104       7.77996399      19.34981775  T       2.58708650      -0.30836879      -0.37143001       0.01888037      -0.02735758       0.01201177      -9.20965958
C        8.04259881       6.66869689      19.74012706  T      -0.95351499       1.69181907      -1.54633400      -0.02672371      -0.02989321      -0.01546878      -9.23224735
C        9.38938188       8.66377871      20.43630864  T      -0.15680981       0.35501798       0.08942787      -0.00640996      -0.00019113       0.00419341      -9.63753891
H        8.24223245       6.40345176      20.77789199  T      -0.20741937      -0.11883069      -0.12247286      -0.01267017      -0.06284133      -0.01532197      -3.59049892
H        7.03737133       7.06284602      19.63109293  T      -0.06759819       0.20152320      -0.00034659      -0.01536497      -0.00290703       0.03330299      -3.53613877
H        8.19654511       5.78811111      19.10584211  T      -0.01625249      -0.03394119       0.09237947       0.02220307      -0.03246343      -0.03486955      -4.16918135
H        9.23987942       8.15458605      21.39663776  T       0.11194320      -0.08895589       0.03732953       0.01342342      -0.02981223      -0.03251936      -3.52934861
H        8.83298751       9.61678110      20.44236931  T      -0.00265357      -0.04811389       0.04840952      -0.01938114      -0.01914936       0.06917681      -3.47737384
H       10.46906474       8.85132671      20.28618570  T       0.21882027       0.00818291      -0.04240050      -0.00608426       0.02245887       0.00226554      -3.67916989
