37
Lattice="8.014131546020508 0.0 5.000000018137469e-16 1.2000000467046398e-15 7.718464374542236 -2.671377420425415 0.0 0.0 29.385150909423828" Properties=species:S:1:pos:R:3:move_mask:L:1:momenta:R:3:forces:R:3:energies:R:1 adsorbate_info="_JSON {\"site\": {\"coordinates\": [2.9698974827102307e-07, 1.92961609, 17.030031200000003], \"connectivity\": 2, \"topology\": [22, 34], \"n_vector\": [-0.005363878810114209, 0.5398377961611545, 0.841751972162809], \"h_vector\": [-1.0, 0.0, 0.0], \"site_formula\": {\"Pt\": 2}}, \"smiles\": \"S1S\", \"mdf\": 1.6672321759769866, \"adsorbate_formula\": \"H\"}" bond_change_count=0 energy=-274.21453857421875 stress="1.0045279850601219e-05 4.209639712371427e-07 -1.4536044545820914e-06 4.209639712371427e-07 0.000632275128737092 -0.0001705144823063165 -1.4536044545820914e-06 -0.0001705144823063165 -0.00018268454005010426" free_energy=-274.21453857421875 pbc="T T F"
Cr      -0.00371436      -0.31194549      12.88357007  T       0.36304145      -2.14234346      -0.64233807       0.03218632       0.03342386      -0.01683098      -9.37909698
Cr       0.00000000       3.85923219      10.35158730  F       0.00000000       0.00000000       0.00000000       0.01962982       0.12903559      -0.10263216      -8.52820778
Cr       0.00629911       0.02089793      15.86618013  T       1.13172902       1.30323418      -0.21272283       0.01891975       0.02250480      -0.01460995      -9.33092785
Cr      -0.01943393       3.57518087      12.94318741  T       0.32084908      -1.09170298      -0.81059479       0.03096049       0.04329095       0.01772681      -9.35656834
Cr       0.01896386      -0.93696018      18.88470025  T      -0.03214308      -2.64193807      -0.86894391      -0.00013532      -0.01619035       0.02853046      -7.63745975
Cr      -0.02492463       3.81168498      15.66855693  T      -0.33546662       0.04238437      -0.23420847       0.00076841      -0.09561473       0.02120200      -8.49436665
Cr       2.67648341      -0.28891315      12.86405097  T      -0.91337247      -3.10644466      -0.14201888      -0.03459270      -0.00408357       0.01740783      -9.36793327
Cr       2.67137742       3.85923219      10.35158730  F       0.00000000       0.00000000       0.00000000      -0.07165042       0.09785326      -0.01920831      -8.53227615
Cr       2.68178027      -0.10292009      15.79889670  T      -0.22282533       0.67564440      -0.07302191       0.06170619       0.05080765       0.01405992      -9.27947807
Cr       2.70354820       3.65503032      12.93991905  T       0.37900565      -1.29751641      -0.99322159      -0.02929674      -0.01511294      -0.06496415      -9.31859684
Cr       2.59668812      -0.29793384      18.27389195  T      -0.27855484       1.03151270      -0.44729510       0.03195433       0.03069529      -0.02913054      -7.87420654
Cr       2.59579770       3.60167301      15.86900863  T      -0.75983540       1.39339254      -0.60775334      -0.00867594      -0.00982282       0.00583206      -8.55321026
Cr       5.34039990      -0.29160761      12.87237538  T       0.12600097      -3.50309426      -2.44099105       0.00847510       0.01049855      -0.02587011      -9.37100029
Cr       5.34275484       3.85923219      10.35158730  F       0.00000000       0.00000000       0.00000000       0.05034991       0.11192255      -0.03544933      -8.53084755
Cr       5.31990706      -0.10404941      15.80923501  T       0.00780929       0.24519100      -0.52929995      -0.06927751       0.04229942       0.01243554      -9.28487968
Cr       5.33260489       3.65468289      12.94139919  T      -0.27040093      -0.94384838      -0.16445166       0.00626324       0.01107560      -0.01959629      -9.32590580
Cr       5.38668946      -0.29122669      18.35661059  T       0.08164162      -1.45746271       0.02206728      -0.02671327      -0.00015374      -0.01861400      -7.89753246
Cr       5.43759185       3.60121164      15.85148582  T      -0.21852216       0.22716078       0.85878081      -0.00056881       0.01643100      -0.00182523      -8.53667164
Pt       1.33568871       1.92961609      11.68727589  F       0.00000000       0.00000000       0.00000000       0.07386953       0.21722299       0.10122894      -5.77101660
Pt       1.33568871       5.78884840       9.01589870  F       0.00000000       0.00000000       0.00000000       0.02827038       0.04753937      -1.13081944      -5.03979445
Pt       1.33496869       1.78237437      14.44064088  T      -0.63844997       0.38058723      -1.20401808      -0.07443841       0.02485726       0.01582902      -6.86669493
Pt       1.33568871       5.78884840      11.68727589  F       0.00000000       0.00000000       0.00000000      -0.15435958      -0.44040117       1.04631591      -6.95940685
Pt       1.28455896       1.61570225      17.25516293  T       0.00394731      -0.04987050       0.80931774      -0.07350384      -0.00551814      -0.05621606      -5.95834160
Pt       1.35747935       5.56803906      14.33507382  T      -0.55404227       1.13298497       2.76588640      -0.03217348       0.02284201      -0.02340424      -6.70101118
Pt       4.00706577       1.92961609      11.68727589  F       0.00000000       0.00000000       0.00000000       0.04010519       0.20933932      -0.06997442      -5.76673985
Pt       4.00706577       5.78884840       9.01589870  F       0.00000000       0.00000000       0.00000000       0.00498202       0.05615044      -1.08341134      -5.04116774
Pt       4.00576977       1.82013679      14.40295633  T      -0.10248954      -2.66866258       0.08055629       0.02577848       0.08188252       0.04640293      -6.85919952
Pt       4.00706577       5.78884840      11.68727589  F       0.00000000       0.00000000       0.00000000      -0.00295226      -0.38129160       1.41633415      -6.99085188
Pt       4.00470707       1.57122951      17.15889885  T      -1.42103648      -2.99276669       1.88575855      -0.01585231      -0.03167146      -0.03150378      -5.81474829
Pt       4.00805939       5.53416708      14.43678710  T       0.35318340      -0.89173055       1.64970414       0.07636954       0.01889423       0.03104991      -6.49477339
Pt       6.67844343       1.92961609      11.68727589  F       0.00000000       0.00000000       0.00000000      -0.12034102       0.08977091       0.05073582      -5.78873730
Pt       6.67844343       5.78884840       9.01589870  F       0.00000000       0.00000000       0.00000000      -0.03567010       0.03797601      -1.13557887      -5.04241562
Pt       6.67940193       1.75787650      14.44358472  T       0.28149930       0.70195447       0.10264917       0.04696651      -0.00361795      -0.02857874      -6.87060070
Pt       6.67844343       5.78884840      11.68727589  F       0.00000000       0.00000000       0.00000000       0.15025347      -0.39480263       1.08841348      -6.96219444
Pt       6.71670892       1.58859760      17.25499183  T      -1.19298805      -2.33425751      -0.05019976       0.09937912       0.00599831      -0.00740874      -5.97589207
Pt       6.66483347       5.61592104      14.34186896  T       0.45486400       3.25892131       0.28302655      -0.05838068       0.02653857      -0.02011511      -6.69700527
H       -0.00646566       2.11755510      18.32971889  T       0.04758454       0.43776036       0.36242832       0.00139465      -0.04056951       0.02223659      -4.01471281
