121
Lattice="11.32190990447998 -0.0 -6.999999919513338e-16 -3.700000002833815e-15 23.034778594970703 -5.66095495223999 -0.0 4.2000001634662394e-15 33.96573257446289" Properties=species:S:1:pos:R:3:move_mask:L:1:momenta:R:3:forces:R:3:energies:R:1 adsorbate_info="_JSON {\"site\": {\"coordinates\": [0.6833421599999999, 7.944483279999997, 18.7670002], \"connectivity\": 2, \"topology\": [33, 51], \"n_vector\": [-0.14684118166462873, 0.4585147902238792, 0.8764712513900771], \"h_vector\": [0.5680712976709229, -0.59547474466443, 0.5680711480345625], \"site_formula\": {\"W\": 1, \"Se\": 1}}, \"smiles\": \"S1S\", \"mdf\": 0.8102614882755411, \"adsorbate_formula\": \"C2H6O\"}" bond_change_count=1 energy=-608.5857543945312 stress="0.00022787069610785693 -4.076874574820977e-06 -1.2583908755914308e-05 -4.076874574820977e-06 4.353175245341845e-05 -5.6293288253073115e-06 -1.2583908755914308e-05 -5.6293288253073115e-06 6.175122689455748e-05" free_energy=-608.5857543945312 pbc="T T F"
Cu       0.01151701      20.15197921      15.14703286  T       0.25107342       0.34899892       1.36864325      -0.00878845      -0.00162594       0.03655139      -3.91030526
Cu      -0.09714753       8.77182699      15.17459003  T       0.21751527       1.22209609       0.99910758       0.00923555      -0.01550476       0.00437190      -4.24141884
Cu       2.83453496      20.17430918      12.40293246  T       0.31848291      -0.99823390      -1.16512657       0.00122491      -0.00223570      -0.00869349      -4.18864250
Cu       2.81217516       8.97860993      18.00943401  T      -0.95419581       1.30948931      -0.66088260       0.00583975       0.00605435      -0.02851512      -4.17921829
Cu       2.51436108      13.38019022      17.57781325  T      -1.54956900      -2.22015654       1.28691867       0.00119257      -0.00025462       0.02796072      -3.45780230
Cu       2.90115579       2.88318800      18.25312294  T      -1.65316637       0.14393054       0.00627916       0.00254813       0.00989834      -0.01280603      -4.18106222
Cu       0.07637216      14.53821712      15.11903933  T      -0.22690144      -0.24812621      -0.35159878      -0.01318396      -0.02409993      -0.00571946      -4.18661880
Cu      -0.12454519       2.68234096      20.77045108  T      -0.76511019       0.99860541      -0.32038403       0.01750702       0.01383850      -0.01135294      -3.74817657
Cu       0.00000000      20.17817879       9.59222507  F       0.00000000       0.00000000       0.00000000       0.00435331      -0.00415975       0.12549551      -4.22980022
Cu       0.00000000       8.66078949       9.59222507  F       0.00000000       0.00000000       0.00000000      -0.00635660      -0.00340135       0.63866311      -2.34370518
Cu       2.83047748      20.17817879       6.76174784  F       0.00000000       0.00000000       0.00000000      -0.00584211      -0.00040391       0.62636703      -3.45449758
Cu       2.79408068       8.62629845      12.41289585  T       0.79255095       1.29753446      -0.44032371      -0.00148966       0.00087161       0.00287014      -4.23455334
Cu       2.96649287      14.58225934      12.29972200  T      -0.58951871      -0.09170158      -0.23595864      -0.00737845      -0.01265298       0.01044777      -4.18174267
Cu       2.49070996       3.41270492      12.81249052  T      -2.00845411       2.68163113       0.68044990      -0.00148115       0.00763435       0.00729176      -3.70504069
Cu       0.00000000      14.41948509       9.59222507  F       0.00000000       0.00000000       0.00000000       0.01634207       0.27377617       0.13375947      -3.67644525
Cu       0.07061241       2.98481557      15.41204735  T       0.59580528      -0.09567480      -0.16592344      -0.01470126       0.00951772       0.00965067      -4.22250032
Cu       5.66950568      20.14634456      15.14614601  T      -0.58236113      -0.04007390       2.34980638      -0.00575234       0.00539981       0.03156590      -3.91266227
Cu       5.57497067       8.76322152      15.21317403  T      -1.50459066      -0.07613733      -0.22659655       0.00381238      -0.01667983      -0.01673697      -4.22603703
Cu       8.49519510      20.17059409      12.40251415  T      -0.77540468      -0.11583771      -1.19034284      -0.00831765       0.00230965      -0.00561955      -4.18797207
Cu       8.46066442       9.00988279      18.02708770  T      -0.43310301      -0.59383347       0.18043614       0.00218430       0.00337090      -0.02209269      -4.16958141
Cu       8.20482026      13.39988059      17.58960202  T      -0.43337263      -2.40473894      -1.61855995      -0.01883951      -0.02553478       0.05731297      -3.45738530
Cu       8.57598886       2.91838292      18.28438228  T       0.79441338      -3.51769943      -0.37959763      -0.00285561       0.01104842      -0.00166866      -4.16186905
Cu       5.73850343      14.54303114      15.12296958  T      -0.07974355      -0.80117800      -0.31723374      -0.01416999      -0.02169156      -0.00560157      -4.18360090
Cu       5.53805913       2.68483756      20.75923265  T      -0.48376316      -2.06497178       0.26073817       0.01034087       0.00900552      -0.00648488      -3.76147747
Cu       5.66095495      20.17817879       9.59222507  F       0.00000000       0.00000000       0.00000000       0.00169562      -0.00481190       0.13162345      -4.22973490
Cu       5.66095495       8.66078949       9.59222507  F       0.00000000       0.00000000       0.00000000      -0.00710987      -0.00289579       0.65266168      -2.35017180
Cu       8.49143314      20.17817879       6.76174784  F       0.00000000       0.00000000       0.00000000      -0.00575636       0.00032110       0.62692970      -3.45463467
Cu       8.45491375       8.62998479      12.41268336  T       0.02597619       0.74154204      -1.30611754       0.00293032       0.00383461      -0.00202941      -4.23576641
Cu       8.62500220      14.58078122      12.30211275  T      -0.89181822       0.61831895      -1.16785353      -0.00677900      -0.01724838       0.01141104      -4.18086433
Cu       8.14145011       3.42552978      12.82775383  T      -1.62486354       2.22500464       1.25874509       0.00004821       0.00516219       0.00795397      -3.71316195
Cu       5.66095495      14.41948509       9.59222507  F       0.00000000       0.00000000       0.00000000       0.01598101       0.27280068       0.13391896      -3.67650843
Cu       5.72946612       2.97843833      15.42242258  T       0.71659514      -0.87939758      -1.19235275       0.00480051       0.01376932       0.00995613      -4.21844101
W        0.00501665      20.16973258      12.37066747  T       3.08505656       1.83363832       0.80178303       0.02443574       0.01709535       0.05988368     -11.72086620
W        0.00420771       9.14170080      17.96816276  T       2.68972824       0.52505634      -2.02014994       0.02566151      -0.01424801       0.03459311     -11.64954948
W        2.89020210      14.41569840      15.11811055  T      -0.14959214      -1.14602748      -2.81756613      -0.00694510      -0.00260386       0.01735307     -11.73347759
W        2.70452679       2.74273301      20.86701253  T      -0.52323447      -0.47334433      -0.10539417      -0.01054049      -0.00564780       0.00327295      -9.94256878
W        0.00000000      20.17817879       6.76174784  F       0.00000000       0.00000000       0.00000000       0.03434806      -0.03793120       2.32472301      -7.39291954
W       -0.03088593       8.67395183      12.40838582  T      -0.02307403      -0.46184573       0.54214748      -0.00101737       0.01006689       0.07960385     -11.74851036
W        2.83047748      14.41948509       9.59222507  F       0.00000000       0.00000000       0.00000000       0.25217769       1.37111402       0.47562027      -9.73855400
W        2.89460480       2.99155246      15.43067080  T       3.41265969       0.55637482       0.88981688      -0.01371215      -0.00740009       0.01787254     -11.77657318
W        5.66654097      20.17194653      12.37303696  T      -2.24052796      -0.37516155      -1.67053268      -0.00623461      -0.02968784       0.00436337     -11.71907902
W        5.65751231       9.14841805      18.04336160  T      -0.61178010       0.03977218       0.66393861       0.02262583      -0.02168536       0.01888616     -11.65862274
W        8.55307265      14.41011944      15.12241934  T       1.88030971       2.12912941      -1.87324725      -0.00794801       0.00194815       0.00360990     -11.73338699
W        8.36042968       2.70434533      20.87399802  T       1.89005509      -3.48878088       1.44499648      -0.01576078       0.00256763       0.00413644      -9.92879963
W        5.66095495      20.17817879       6.76174784  F       0.00000000       0.00000000       0.00000000       0.03332148      -0.03766152       2.32481027      -7.39336634
W        5.63230885       8.67191049      12.41659245  T      -0.25029292       1.46076937       0.17178733      -0.00067684      -0.00061426       0.03204477     -11.73530102
W        8.49143314      14.41948509       9.59222507  F       0.00000000       0.00000000       0.00000000       0.25242031       1.36994815       0.47688085      -9.73778915
W        8.55573677       3.00517377      15.45157315  T       0.61525127       0.66011987       0.85002376      -0.00046434       0.01004674       0.01376185     -11.77519512
Se       3.74394752      19.40913295      16.50491161  T      -0.24033494       1.28408069      -0.11038435      -0.06062552       0.01149067       0.00413121      -3.22015667
Se       4.35650610       7.50522569      16.89601189  T      -0.26321466       0.46507984       1.06176283       0.01645499       0.01364112      -0.00436720      -4.33903027
Se       1.32778188      18.70501843      13.69723031  T       1.66915401       1.95784563      -0.26282949      -0.00729389      -0.01153082       0.00278073      -4.37124014
Se       1.25855577       7.66427668      19.28933418  T       3.56700202      -0.45145081      -5.74983976       0.03711632      -0.02145152       0.02423809      -3.99845386
Se       1.59289190      15.47524633      16.82162252  T       1.84001811      -0.01174536      -0.68555249      -0.00786743       0.00818063       0.00168278      -4.37622213
Se       1.55223083       4.39543332      16.79941035  T      -0.54161949      -0.54070046      -1.67860474       0.01220097       0.00494098      -0.00009878      -4.30874205
Se       4.17470023      16.05129475      13.97899640  T      -1.54513461       0.12964314       1.13785894       0.00343198      -0.02310283      -0.00298592      -4.33156919
Se       4.04968182       4.39318314      19.79959827  T      -0.93626554      -0.14082144       0.64628614       0.00179862       0.02150831       0.00949831      -4.32545519
Se       2.03204787      11.67993124      19.12776651  T       1.43547433       1.34873786      -1.48165706      -0.00342384       0.01152475       0.00157411      -3.33344722
Se       1.45396825       1.35108238      19.45761554  T       1.29137481       0.91999674       2.26646487      -0.00471467       0.00039579       0.00390929      -4.44648123
Se       4.32683763      12.82267486      16.16349754  T       0.31397835       3.82193725       1.27324422      -0.03161135      -0.02431684       0.03815946      -4.42526102
Se       4.09436821       1.31857381      22.10892629  T      -1.03268762       1.71899244      -2.17096491      -0.02056251      -0.01152581       0.01372512      -4.04806185
Se       4.27930097      10.60380941      19.37802630  T       0.47923335      -1.16063104      -1.41882825       0.01380828       0.02002068       0.01176910      -3.91910267
Se       4.35557698      21.61767512      13.72523737  T       2.45661478      -0.76915992      -1.18211000      -0.00203804       0.01361585       0.02262546      -4.37743664
Se       1.36949375      10.27108878      16.37644595  T      -0.41725516      -0.73032301       0.65243319       0.00237866      -0.01641904      -0.00741374      -4.30500555
Se       1.93275932      20.78406560      16.56366203  T      -0.64325009      -0.98617510      -0.63606443       0.04660837      -0.02155747       0.00138050      -3.22363019
Se       4.29427099      18.74556732      11.05601883  F       0.00000000       0.00000000       0.00000000      -0.01200803      -0.02974183       0.05356991      -4.34175730
Se       4.29427099       7.22817707      11.05601883  F       0.00000000       0.00000000       0.00000000       0.30333200       0.17262876      -0.33699444      -4.54495621
Se       1.36668432      18.74556732       8.12843227  F       0.00000000       0.00000000       0.00000000      -0.31572941       0.49054044      -1.68083549      -4.50852346
Se       1.27771504       7.26042055      13.78560812  T      -0.44058925       1.58128482       0.13437932      -0.01023857       0.01209022      -0.04923573      -4.33359385
Se       1.46379328      15.85209751      10.95890999  F       0.00000000       0.00000000       0.00000000       0.57148582      -0.47478902      -1.01724792      -4.43102980
Se       1.46379328       4.33470774      10.95890999  F       0.00000000       0.00000000       0.00000000       0.02636459       0.07227136      -0.00932986      -1.94054008
Se       4.19716167      15.85209751       8.22554111  F       0.00000000       0.00000000       0.00000000      -0.69996810      -1.13632524       0.94121242      -4.04195786
Se       4.22625055       4.43608368      14.08755879  T       0.56066037      -1.62134234       0.14287225      -0.01497714       0.00744856       0.00125204      -4.42931318
Se       1.50211032      13.15120601      13.65765959  T       1.28399106      -0.78189173       0.73594603      -0.00284396      -0.02847990      -0.00746662      -4.30894375
Se       1.55474585       1.59458631      14.03090786  T       2.07849034       1.97744957      -1.43537237       0.01533815       0.02929053       0.01036323      -4.39412212
Se       4.19716167      12.98687172      10.95890999  F       0.00000000       0.00000000       0.00000000      -0.05220123       0.10018352      -0.59822822      -4.41574144
Se       4.25148540       1.49536616      16.68683145  T       1.66443453       0.59301930      -1.21037002      -0.01393039       0.02351653       0.01273173      -4.33207369
Se       4.25713615      10.13278236      13.68179996  T       1.31459823       1.38440251      -0.58486270       0.00374224      -0.01021497      -0.02080362      -4.33561325
Se       4.29427099      21.61079216       8.12843227  F       0.00000000       0.00000000       0.00000000       0.27335647      -0.42924911      -1.62292480      -4.49897528
Se       1.36668432      10.09340286      11.05601883  F       0.00000000       0.00000000       0.00000000      -0.31513220      -0.27223235      -0.37533724      -4.51313829
Se       1.36668432      21.61079216      11.05601883  F       0.00000000       0.00000000       0.00000000       0.03683065       0.02981275       0.05992234      -4.33609438
Se       9.40118606      19.40851428      16.50312440  T       1.69249703       0.99864524      -1.03068763       0.00069739      -0.02243743      -0.00184403      -3.22103024
Se       9.94647750       7.55551790      16.82894719  T       1.34015933       0.18003947       1.62671222       0.01434195      -0.01142776      -0.00196879      -4.33276320
Se       6.98632977      18.70208073      13.69665903  T      -0.65686951       2.29252550       0.06248486      -0.00251345      -0.00518288       0.00436684      -4.37164116
Se       6.94118385       7.79466975      19.45427227  T      -3.20346872       0.31474680      -0.50678438       0.01965311      -0.02256837       0.01092669      -3.99686718
Se       7.26061790      15.47405753      16.82857324  T       0.43340909      -1.79504158       0.62883242      -0.00694616       0.01817159      -0.01844961      -4.37989330
Se       7.20428631       4.40207621      16.81679183  T      -0.34204096      -0.49419960      -1.51003194       0.00649560      -0.00437023       0.00094264      -4.30910444
Se       9.83496644      16.04805894      13.98280355  T       0.03062893      -0.17382552      -1.26132771      -0.00435755      -0.02924410      -0.00732438      -4.33239698
Se       9.68702861       4.42864432      19.89940774  T      -0.60085624      -0.16210366       1.04736126      -0.00389974       0.01864660       0.00232722      -4.29926825
Se       7.73531277      11.70495308      19.15002954  T       1.46840357       0.86344042      -1.79752292       0.00657585       0.02631344      -0.00757277      -3.32024145
Se       7.10926108       1.35868243      19.42329705  T       1.39512091       1.29228057       1.82088245      -0.00577116       0.00078591       0.00174913      -4.44585180
Se       9.99076159      12.81127337      16.16102200  T      -0.78175644       0.48083742      -1.01163945      -0.02579473      -0.00550931       0.01159905      -4.42882252
Se       9.76735149       1.25202030      22.06638473  T      -0.87623595       1.29174101      -0.84949138      -0.02368169      -0.01792997       0.01844162      -4.05823231
Se      10.00185573      10.64001497      19.31942365  T      -1.41466544       2.25708257      -4.41743401       0.01225907       0.03657520      -0.00001705      -3.88266230
Se      10.01569030      21.61333732      13.72672554  T       0.40232131      -0.89761235       0.21288586       0.00337059       0.00817506       0.00509842      -4.37623692
Se       6.98234357      10.31137347      16.43766642  T       1.14322153      -1.82837689       1.19991584       0.00572922      -0.03549536      -0.01256439      -4.30741882
Se       7.59275322      20.77590274      16.56546457  T       0.51706616      -1.20010387      -1.39561751      -0.00101071       0.01463951       0.00650711      -3.22272253
Se       9.95522594      18.74556732      11.05601883  F       0.00000000       0.00000000       0.00000000      -0.03563737      -0.06896552       0.02353575      -4.34436941
Se       9.95522594       7.22817707      11.05601883  F       0.00000000       0.00000000       0.00000000       0.24634273       0.12833218      -0.38733310      -4.54503059
Se       7.02763939      18.74556732       8.12843227  F       0.00000000       0.00000000       0.00000000      -0.31602013       0.49097726      -1.68014145      -4.50871325
Se       6.94718478       7.27272934      13.80048333  T      -1.28558998       0.88310901      -0.81828352      -0.00556770      -0.00733305      -0.03171624      -4.34375858
Se       7.12474823      15.85209751      10.95890999  F       0.00000000       0.00000000       0.00000000       0.57558995      -0.47881371      -1.01309395      -4.43222189
Se       7.12474823       4.33470774      10.95890999  F       0.00000000       0.00000000       0.00000000       0.03285053       0.06238727       0.00951484      -1.93730354
Se       9.85811710      15.85209751       8.22554111  F       0.00000000       0.00000000       0.00000000      -0.69961053      -1.13636756       0.94084013      -4.04204798
Se       9.87785767       4.45164667      14.10077786  T       0.80179161      -0.71932429       1.06000248      -0.02017098      -0.00038284       0.00784912      -4.42878199
Se       7.15858846      13.15126230      13.66211247  T       1.06548333       1.22148970       0.81485884       0.00930843      -0.01953641       0.00215150      -4.30987310
Se       7.22947885       1.59642738      14.05129226  T       1.63809861      -0.04976714       0.11585200       0.01121342       0.02753334       0.00818178      -4.39472389
Se       9.85811710      12.98687172      10.95890999  F       0.00000000       0.00000000       0.00000000      -0.05952305       0.11087693      -0.59615529      -4.41651535
Se       9.92218461       1.52821732      16.71997699  T      -0.70392251       0.25613687       0.64381991      -0.00554022       0.02023026       0.00494446      -4.33485889
Se       9.91654868      10.15377837      13.65727517  T       0.30265765      -0.67529043       0.15931754       0.01589371      -0.03129764      -0.03559831      -4.32586575
Se       9.95522594      21.61079216       8.12843227  F       0.00000000       0.00000000       0.00000000       0.27162695      -0.42733446      -1.62236714      -4.49849844
Se       7.02763939      10.09340286      11.05601883  F       0.00000000       0.00000000       0.00000000      -0.37693834      -0.30996710      -0.33349782      -4.51163816
Se       7.02763939      21.61079216      11.05601883  F       0.00000000       0.00000000       0.00000000       0.04725054       0.02627721       0.06035972      -4.33750248
O       -0.80279312       7.16102085      22.92509376  T      -2.09123814      -0.63594264       7.36775691       0.02013379       0.03146344       0.03170652      -6.58312893
C       -0.61339878       8.47180477      22.34612009  T       0.28692336      -1.91979782       2.09814070       0.00449543       0.04455161      -0.04265088      -9.41026402
C        0.08293125       9.35733124      23.35952083  T       0.69336931       1.04054823       2.34885133      -0.02791592      -0.00860213       0.02196106      -9.47919083
H       -0.01588120       8.38131429      21.40647771  T      -0.47169356       0.01320717      -0.09335037      -0.02913888      -0.00799649       0.01246482      -3.60735345
H       -1.60164861       8.87497542      22.05969302  T       0.13544794       0.50811612      -0.19933996       0.00460280      -0.00399080       0.01763759      -3.57008410
H        0.19098532      10.37645146      22.95060538  T       0.07739409       0.27945492       0.03333494       0.03455140      -0.03052313      -0.02378665      -3.61674905
H        1.07904620       8.95989322      23.60327116  T      -0.02384418       0.05485689       0.17274454      -0.04744165       0.00359040      -0.00325476      -3.63724089
H       -0.51150487       9.41438279      24.27958290  T       0.12413638       0.24189400       0.31607703      -0.00630665      -0.01969169       0.08143626      -3.63990998
H       -1.18805107       6.55864585      22.26097626  T      -0.84146985       0.33016672      -1.55338803       0.01879597      -0.01744369       0.00267896      -3.34326196
