121
Lattice="11.32190990447998 -0.0 -6.999999919513338e-16 -3.700000002833815e-15 23.034778594970703 -5.66095495223999 -0.0 4.2000001634662394e-15 33.96573257446289" Properties=species:S:1:pos:R:3:move_mask:L:1:momenta:R:3:forces:R:3:energies:R:1 adsorbate_info="_JSON {\"site\": {\"coordinates\": [8.49143314, 14.41948509, 18.08365822], \"connectivity\": 1, \"topology\": [20], \"n_vector\": [0.15849571917356992, 0.36515655571586786, 0.9173547824159294], \"h_vector\": [1.0, 0.0, 0.0], \"site_formula\": {\"Cu\": 1}}, \"smiles\": \"Cl\", \"mdf\": 1.7127647297895932, \"adsorbate_formula\": \"C2H6O\"}" bond_change_count=0 energy=-608.429931640625 stress="0.0002452436601743102 -9.478863830736373e-06 -1.7435357221984304e-05 -9.478863830736373e-06 4.9129939725389704e-05 -9.116869478020817e-06 -1.7435357221984304e-05 -9.116869478020817e-06 7.029136759229004e-05" free_energy=-608.429931640625 pbc="T T F"
Cu       0.04436047      20.10376687      15.16558357  T       0.20043711       0.43594336       0.81874393      -0.02221245       0.02924478       0.00350273      -3.89471412
Cu      -0.01540045       8.77020798      15.20399198  T      -1.27457272      -0.70556459      -1.14870697      -0.00234847      -0.00117523       0.03469074      -4.22235870
Cu       2.84348947      20.18695542      12.40345171  T       0.96851367      -1.06920030       1.03867426      -0.00579805      -0.00219027      -0.01954600      -4.18853331
Cu       2.76921424       8.88807644      18.00393987  T      -0.20158321      -0.40830494       0.27047854      -0.00845580       0.00179452       0.00817368      -4.27194786
Cu       2.31762366      14.41323770      17.73745296  T      -1.13266299      -1.76335354      -0.65276736       0.05857986      -0.03535333       0.02081051      -3.69710994
Cu       2.90407910       2.87682777      18.24594207  T      -0.79248268       1.22394388       0.33341589      -0.00454013       0.01481802       0.00367096      -4.18451214
Cu      -0.04382707      14.52557830      15.08494611  T       0.90034872       0.39528289      -0.31507003       0.03580008       0.02898558      -0.02747673      -4.17912579
Cu      -0.10547490       2.74169578      20.75894307  T       0.45401871      -0.01191071       0.31312220       0.01366056       0.00461981      -0.01141167      -3.76054645
Cu       0.00000000      20.17817879       9.59222507  F       0.00000000       0.00000000       0.00000000       0.00338615      -0.00230631       0.13611144      -4.22933769
Cu       0.00000000       8.66078949       9.59222507  F       0.00000000       0.00000000       0.00000000      -0.01060531      -0.00640491       0.65531594      -2.35241127
Cu       2.83047748      20.17817879       6.76174784  F       0.00000000       0.00000000       0.00000000      -0.00673684      -0.00095053       0.62629145      -3.45399952
Cu       2.81377847       8.64552892      12.41830665  T       0.29771940      -0.19865856       2.07622363      -0.01219300      -0.00415419      -0.00032312      -4.24160242
Cu       2.84369607      14.45006151      12.32779337  T       0.40885277      -0.23042369       0.66153464       0.03471513       0.01792652      -0.02686445      -4.23756409
Cu       2.47078450       3.37206710      12.79992696  T      -1.74255601       0.82499143      -0.23284081      -0.00761868       0.01222668       0.00955021      -3.70114446
Cu       0.00000000      14.41948509       9.59222507  F       0.00000000       0.00000000       0.00000000       0.00402066       0.30333552       0.15002212      -3.67890406
Cu       0.04735390       2.95102646      15.39595396  T      -0.17526290      -1.13067803       0.50523072      -0.00005796      -0.00257263       0.00265076      -4.21927834
Cu       5.69902664      20.11409407      15.16623743  T      -1.64052417      -0.54251353       0.55985405       0.00458245       0.02248011       0.00540544      -3.90241694
Cu       5.58315967       8.60071770      15.17361328  T       0.89805422      -0.75250141      -0.00889824      -0.00106978       0.01046273       0.02020874      -4.23289824
Cu       8.49910812      20.17825243      12.40736940  T      -0.81168258      -0.85560832       0.38240828       0.00454184       0.00219502      -0.01851054      -4.18861008
Cu       8.44472526       8.77230033      18.00201800  T       1.79227395       1.00294426      -0.24067444      -0.00311293       0.00035428      -0.00697248      -4.27064991
Cu       8.98480461      14.95955078      17.77800608  T      -4.26088796      -3.24221237      -0.77097279      -0.01601612      -0.04206355      -0.03658617      -3.85725999
Cu       8.55699557       2.87952898      18.24767660  T       0.70239225      -0.75311510       1.52436359       0.00214910       0.02037636       0.00654304      -4.18428135
Cu       5.61689258      14.50893876      15.23364643  T       0.64597426      -0.33569648       1.27718038       0.03534267       0.01754883       0.01442902      -4.20894337
Cu       5.55406696       2.73481142      20.76016518  T       0.26467151      -0.19925699      -0.23303922       0.01598311      -0.00092348      -0.00803337      -3.76177907
Cu       5.66095495      20.17817879       9.59222507  F       0.00000000       0.00000000       0.00000000       0.00565437      -0.00250133       0.13528901      -4.22951126
Cu       5.66095495       8.66078949       9.59222507  F       0.00000000       0.00000000       0.00000000      -0.01123238       0.00014543       0.64799690      -2.34896755
Cu       8.49143314      20.17817879       6.76174784  F       0.00000000       0.00000000       0.00000000      -0.00674402      -0.00094254       0.62648010      -3.45404172
Cu       8.47001992       8.63850677      12.41042315  T      -0.96999039      -0.31881411       1.65128106       0.01787111       0.00358519       0.00543190      -4.23518419
Cu       8.43611944      14.39196756      12.35778316  T      -0.53308811      -1.63599493       0.36850644      -0.00052155      -0.00733574      -0.01938565      -4.22195101
Cu       8.13484019       3.36742875      12.79635040  T      -2.23247127       1.99087385      -0.84351559      -0.00507680       0.02320703       0.00874752      -3.69398737
Cu       5.66095495      14.41948509       9.59222507  F       0.00000000       0.00000000       0.00000000       0.00416589       0.30527627       0.14193644      -3.67923474
Cu       5.70802416       2.95769168      15.39695602  T       0.27903847       1.72534298      -0.48199039      -0.00128440      -0.00756532      -0.00717121      -4.21743011
W        0.00583014      20.17015700      12.37399370  T      -1.07421230       1.17895155       1.23529869       0.03420532       0.01533227       0.00421521     -11.71594906
W       -0.07435666       8.95522455      17.99146626  T       1.08341599       2.96267085       0.74749303       0.01092708      -0.01669453      -0.02205236     -11.52899456
W        2.77199005      14.53973639      15.11920505  T      -0.95055336      -0.33722289       0.62380308      -0.00306921       0.01105764       0.03695244     -11.76185226
W        2.72074848       2.78304340      20.86780056  T       0.37628370      -0.94726044      -2.41612156      -0.00069740       0.00563144      -0.01016468      -9.94408321
W        0.00000000      20.17817879       6.76174784  F       0.00000000       0.00000000       0.00000000       0.03391471      -0.03672167       2.32757378      -7.39208889
W       -0.02162947       8.67250299      12.41767562  T       1.55312550      -1.44275014       2.29879599      -0.00172174      -0.01292502      -0.03589493     -11.74305534
W        2.83047748      14.41948509       9.59222507  F       0.00000000       0.00000000       0.00000000       0.15189685       1.26626539       0.36745819      -9.73949528
W        2.87585791       2.96513738      15.42405314  T       0.17470019       0.21040980       0.55831490       0.00462555      -0.00496947      -0.00877653     -11.76983261
W        5.67049071      20.16477811      12.37418491  T       1.60880144      -0.43433769      -0.50567369       0.04323577       0.04085816       0.00626460     -11.71796989
W        5.61454627       8.76336303      17.97844679  T       0.14983294       1.48319556       1.77863735      -0.01118290      -0.01003724       0.00601465     -11.67481804
W        8.45250724      14.44619008      15.16674347  T       1.23529771      -0.03862789       0.08850515       0.01542640       0.00514293      -0.00803746     -11.53608322
W        8.37958384       2.78984499      20.86880191  T       1.75629390      -1.88903371       1.50930957       0.01384392       0.01671475      -0.00215465      -9.94593048
W        5.66095495      20.17817879       6.76174784  F       0.00000000       0.00000000       0.00000000       0.03396361      -0.03691321       2.32752132      -7.39200830
W        5.64852439       8.65735803      12.41240839  T       1.01777677      -1.16756573       1.08855260      -0.01926071      -0.00730620      -0.02361405     -11.75087738
W        8.49143314      14.41948509       9.59222507  F       0.00000000       0.00000000       0.00000000       0.11324774       1.22680163       0.36612725      -9.73595810
W        8.53606966       2.96487943      15.42475277  T      -1.81294573       0.45636837      -1.11089245       0.00349288       0.00159626      -0.00597426     -11.77578735
Se       3.76861931      19.31575723      16.47200149  T       0.97148913       1.45501022      -1.69581688       0.03509852      -0.03920787       0.01361782      -3.24980092
Se       4.22478491       7.29871814      16.72057654  T      -0.19350504       0.79673729       1.31288569       0.00277861       0.02151351       0.02516381      -4.31450319
Se       1.33835520      18.70213750      13.68427299  T      -1.52698582       0.85717425       1.00248848      -0.01051396      -0.02671144      -0.01072636      -4.38137293
Se       1.21821554       7.67459673      19.45654544  T      -2.40273099       1.23846119      -0.10935154      -0.01579048       0.02019683      -0.03516597      -4.04726267
Se       1.38935721      16.07251354      16.32250417  T       0.61476654      -0.37560532       0.81919059      -0.00396242      -0.01127934       0.05169547      -4.37669897
Se       1.51866415       4.35930371      16.78849259  T       1.42527338       0.90183750      -2.45653786       0.01391596      -0.00197492      -0.01400163      -4.31133270
Se       4.19279341      15.93177466      13.82652227  T      -1.71431255      -0.77507654       1.48575266       0.03642946       0.00433379      -0.01432079      -4.31307697
Se       4.06265899       4.41192860      19.76370326  T       1.44334559      -1.04004106       0.50529585       0.00249467       0.02693695       0.00705383      -4.33122396
Se       1.44147462      13.84843353      19.81682093  T       1.23148062       2.11505016      -1.66603310      -0.00505883       0.00482830       0.03415078      -2.27836752
Se       1.47025951       1.36321173      19.48691227  T       2.01215174       2.10697116       0.40107293      -0.01335913      -0.01734472       0.00528514      -4.43968439
Se       4.04838588      13.18514045      16.60768649  T      -1.17145472       1.30261470       1.44787662      -0.02804708       0.00822252       0.04914159      -4.41605377
Se       4.11365931       1.38501326      22.13406994  T      -1.18797467       1.78627769      -3.09841028      -0.01839285      -0.01247182       0.01812892      -4.04023027
Se       4.34051760      10.24360190      19.27520588  T       1.75869904      -1.69928012       0.30733186       0.01212412       0.00611651      -0.02868080      -4.03009081
Se       4.37000344      21.59853703      13.74733864  T       0.67334230      -0.83615410      -1.54796198      -0.00896123       0.03416488       0.02366121      -4.37083912
Se       1.28516447      10.31416853      16.59698410  T       0.09429502       0.45180608       0.29255061      -0.04242944      -0.03813414       0.03073049      -4.35129547
Se       1.98309540      20.70729714      16.57465220  T       0.39512340      -2.60594580      -0.86105154      -0.04650389       0.02776222      -0.00750161      -3.22005415
Se       4.29427099      18.74556732      11.05601883  F       0.00000000       0.00000000       0.00000000      -0.02261747      -0.03607141       0.03665365      -4.34331083
Se       4.29427099       7.22817707      11.05601883  F       0.00000000       0.00000000       0.00000000       0.26024625       0.17468716      -0.39067638      -4.54108858
Se       1.36668432      18.74556732       8.12843227  F       0.00000000       0.00000000       0.00000000      -0.31628919       0.49139008      -1.68079257      -4.50908947
Se       1.30335104       7.25760530      13.77168599  T      -0.79750081       0.73344303      -0.17039636       0.02712880      -0.00588479       0.01526546      -4.35754442
Se       1.46379328      15.85209751      10.95890999  F       0.00000000       0.00000000       0.00000000       0.58188599      -0.55701101      -0.94870543      -4.43018103
Se       1.46379328       4.33470774      10.95890999  F       0.00000000       0.00000000       0.00000000       0.01784878       0.07083756      -0.01787351      -1.94278550
Se       4.19716167      15.85209751       8.22554111  F       0.00000000       0.00000000       0.00000000      -0.65656370      -1.10361266       0.93810380      -4.03685093
Se       4.19456460       4.41218488      14.06662139  T      -1.02048205      -0.76196983      -0.42246460       0.00077711      -0.01949388       0.03791092      -4.43649864
Se       1.44778001      13.04883103      13.82024685  T      -0.57379280      -0.00967910       0.52127181      -0.00097261      -0.01547600      -0.00744316      -4.32508802
Se       1.54783741       1.55684468      14.02598853  T       0.23112928       0.46062819      -0.25127178      -0.00178866       0.02151394       0.01881444      -4.39744377
Se       4.19716167      12.98687172      10.95890999  F       0.00000000       0.00000000       0.00000000      -0.08845536       0.05021848      -0.56531858      -4.40779591
Se       4.24542798       1.48614435      16.69034599  T      -0.81022103      -0.73648884      -1.93664929      -0.02494810       0.01583871      -0.00871937      -4.33334303
Se       4.29241903      10.10141716      13.72053633  T       0.76501378      -1.66401161      -2.09013512      -0.00599906       0.01605316       0.00863041      -4.33847237
Se       4.29427099      21.61079216       8.12843227  F       0.00000000       0.00000000       0.00000000       0.27414307      -0.43395653      -1.62437534      -4.50037384
Se       1.36668432      10.09340286      11.05601883  F       0.00000000       0.00000000       0.00000000      -0.32983086      -0.28172940      -0.33553931      -4.51219749
Se       1.36668432      21.61079216      11.05601883  F       0.00000000       0.00000000       0.00000000       0.01731123       0.02699479       0.08516072      -4.33599377
Se       9.42754190      19.40078286      16.52338827  T      -1.08553579       0.56247507       0.15919897      -0.02311051       0.00630107       0.00423422      -3.23062801
Se       9.99695179       7.37079206      16.73824804  T       1.17604914       0.18661471       1.30437884       0.03153658       0.04385874       0.01651161      -4.33753824
Se       6.99594438      18.69562521      13.69143969  T      -1.87654821       0.08903032      -0.37206950       0.00484635      -0.03976420       0.00803704      -4.37911510
Se       6.96001883       7.40223309      19.34186515  T      -1.25105533       1.36636812      -0.48576212      -0.01525295       0.00650360      -0.01240058      -4.03299236
Se       7.19947950      15.90620732      16.57495370  T       0.61417546      -0.34177753      -0.19929256       0.00520539       0.04209843       0.05500720      -4.33223534
Se       7.18350173       4.36370656      16.78677766  T      -1.35767586      -0.63236409      -1.11357234       0.01042962       0.00595034      -0.00710247      -4.31003714
Se       9.74693121      15.89324606      13.80591614  T      -1.39403810       0.27229233       0.84854118       0.03939231       0.02393097      -0.05421650      -4.35571146
Se       9.71827377       4.41871789      19.75953241  T       0.18113153      -0.24519210       0.84148899      -0.00396140       0.00577930       0.01483016      -4.33351135
Se       8.56712131      12.37545091      18.56963267  T       0.04866105       0.36916931      -1.77727599       0.04391760       0.00486746       0.00486901      -2.87303686
Se       7.13771660       1.35684254      19.49451484  T       2.11770410       0.77205435       0.92120937      -0.02057746      -0.01901612      -0.00366359      -4.44092607
Se       9.81716274      12.90213288      16.41508028  T       1.51935517       1.38994837      -0.33287277      -0.00662452       0.00476252       0.05527221      -4.21330357
Se       9.77656144       1.40115798      22.14116656  T      -0.97590272       0.59831768      -1.43640048      -0.02168888      -0.00799617       0.01526858      -4.04157925
Se       9.80717270      10.37146483      19.31885054  T       2.19626791      -1.56439137      -0.65830413       0.02292691      -0.03103840      -0.02902174      -4.12226391
Se      10.02263267      21.60054611      13.74629363  T      -1.54561545      -1.04006101      -0.96766369       0.01750079      -0.00637505       0.02536530      -4.37059641
Se       6.96010566      10.10043761      16.53127839  T      -0.66180358      -1.40627875       0.32994730      -0.00745731      -0.01861965       0.03424381      -4.30112600
Se       7.63960197      20.80700011      16.52849012  T       0.30172910      -1.53267664      -0.65000767       0.01616509      -0.02695549      -0.01180804      -3.22752619
Se       9.95522594      18.74556732      11.05601883  F       0.00000000       0.00000000       0.00000000      -0.01666342      -0.02115353       0.05228403      -4.34183168
Se       9.95522594       7.22817707      11.05601883  F       0.00000000       0.00000000       0.00000000       0.33924136       0.22860622      -0.31405252      -4.54197264
Se       7.02763939      18.74556732       8.12843227  F       0.00000000       0.00000000       0.00000000      -0.31648284       0.49127761      -1.68138695      -4.50918436
Se       6.97439369       7.18994378      13.71109431  T       1.33173091       0.92244676      -1.11423948      -0.00266230       0.00724074       0.01984198      -4.35037327
Se       7.12474823      15.85209751      10.95890999  F       0.00000000       0.00000000       0.00000000       0.60184497      -0.62366056      -0.90199947      -4.43907404
Se       7.12474823       4.33470774      10.95890999  F       0.00000000       0.00000000       0.00000000       0.02511052       0.07063376       0.00062624      -1.94587386
Se       9.85811710      15.85209751       8.22554111  F       0.00000000       0.00000000       0.00000000      -0.64034808      -1.09273779       0.92928582      -4.03543520
Se       9.85749205       4.40881316      14.06854752  T       0.16866144      -0.95867273      -0.19512252       0.01138225      -0.00757801       0.01631561      -4.43501616
Se       7.03255675      13.01635786      13.91182432  T       1.66136998       0.30127336       1.41656042      -0.01370721      -0.02148040      -0.08049135      -4.32981825
Se       7.20653970       1.56015046      14.02557848  T       1.60467634      -0.18373830      -1.46276666      -0.01198019       0.00347758       0.01216334      -4.39856291
Se       9.85811710      12.98687172      10.95890999  F       0.00000000       0.00000000       0.00000000      -0.15665174       0.10038842      -0.51083028      -4.40594578
Se       9.90186313       1.48843781      16.69605739  T      -1.03443416       0.07861110      -0.92879287      -0.01377115       0.00087085      -0.01152132      -4.33239126
Se       9.94316497      10.13703173      13.69851371  T       0.16638938      -1.90341905      -1.82382564      -0.02409089       0.01515288       0.00197745      -4.34411860
Se       9.95522594      21.61079216       8.12843227  F       0.00000000       0.00000000       0.00000000       0.27370280      -0.43317723      -1.62465346      -4.50001955
Se       7.02763939      10.09340286      11.05601883  F       0.00000000       0.00000000       0.00000000      -0.32425538      -0.27264994      -0.32800171      -4.51091909
Se       7.02763939      21.61079216      11.05601883  F       0.00000000       0.00000000       0.00000000       0.01763587      -0.00112085       0.10076112      -4.33393574
O       10.26860368      15.60695894      19.05543899  T       2.44770297       1.96699573       1.47857835      -0.02322351      -0.02002561      -0.05880024      -6.70418406
C        9.70365681      16.08690675      20.28610600  T       0.87730472       1.27530777       0.87953023       0.02439943       0.02565062       0.00614411      -9.67864418
C        9.74944164      14.98936323      21.32627197  T       0.57264836       0.44843362       0.08884818      -0.01203673      -0.00449871       0.00415540      -9.28687954
H       11.08624240      15.00696295      19.32815672  T       0.06370077       0.40058800       0.33581111       0.00134637      -0.00575759       0.01569124      -3.55296969
H       10.32118265      16.94589688      20.59139933  T      -0.06697624      -0.01137446       0.30836427       0.03396186       0.02740598       0.04346550      -3.48030567
H        8.67942753      16.42301018      20.06451261  T       0.01181806       0.09137157       0.15127429      -0.01023456       0.01392104       0.02827839      -3.50636840
H       10.76934760      14.57497920      21.38487125  T       0.14697025      -0.02814865       0.11038617      -0.02680355      -0.00516224       0.02218003      -3.71469116
H        9.06445097      14.17702496      21.04504068  T      -0.11169836       0.06882703      -0.05802853       0.02022843      -0.03308815       0.00309734      -3.66609550
H        9.46079425      15.41071504      22.29885771  T      -0.01861284       0.10628221       0.17850648      -0.02856430      -0.02404854       0.02428059      -3.63812113
