121
Lattice="11.32190990447998 -0.0 -6.999999919513338e-16 -3.700000002833815e-15 23.034778594970703 -5.66095495223999 -0.0 4.2000001634662394e-15 33.96573257446289" Properties=species:S:1:pos:R:3:move_mask:L:1:momenta:R:3:forces:R:3:energies:R:1 adsorbate_info="_JSON {\"site\": {\"coordinates\": [7.808090684999999, 15.135791300000001, 17.35176182], \"connectivity\": 2, \"topology\": [20, 84], \"n_vector\": [-0.3743395391761807, 0.5796683141379539, 0.723777973548399], \"h_vector\": [-0.555045215291036, 0.5818200400614008, -0.5944831788751281], \"site_formula\": {\"Cu\": 1, \"Se\": 1}}, \"smiles\": \"S1S\", \"mdf\": 0.8639338538381616, \"adsorbate_formula\": \"C2H6O\"}" bond_change_count=0 energy=-607.7432250976562 stress="0.00024682257208041847 -6.13019619777333e-06 -1.6368734577554278e-05 -6.13019619777333e-06 4.796207940671593e-05 -8.61410444485955e-06 -1.6368734577554278e-05 -8.61410444485955e-06 7.876228482928127e-05" free_energy=-607.7432250976562 pbc="T T F"
Cu       0.06315111      20.12311509      15.20599056  T      -1.40033591       0.53704083       1.27057063      -0.02681047       0.00456930      -0.01886848      -3.88364506
Cu      -0.09040940       8.65967356      15.20169965  T      -0.50947269       0.08410473       0.48660593       0.00125021       0.00699814       0.00341663      -4.23200846
Cu       2.84444965      20.17339093      12.41552609  T       1.26654517      -0.50072448       0.50260307      -0.01792998       0.00157267      -0.01233518      -4.18569040
Cu       2.74585291       8.74694842      18.04973170  T       0.28303751       0.57599240       0.03252009      -0.02076594      -0.02017095      -0.00142605      -4.22700071
Cu       2.65114125      13.42922083      17.65234120  T      -2.33061576      -2.30716195      -0.13137800      -0.01841568       0.03781250      -0.05235600      -3.45642209
Cu       2.90405166       2.88821910      18.23432081  T       1.47749259      -0.31024248       0.88459823      -0.00109047       0.00318568       0.03153625      -4.18235779
Cu       0.01110893      14.43917174      15.21506344  T      -0.16076162       0.51972330       1.26348706       0.00990699      -0.00530708       0.00935056      -4.21083689
Cu      -0.09995158       2.76530818      20.73923348  T       0.29650334      -1.36633935      -0.88074560      -0.00521466       0.00889774       0.00835072      -3.76718283
Cu       0.00000000      20.17817879       9.59222507  F       0.00000000       0.00000000       0.00000000       0.00326500      -0.00174893       0.15112697      -4.23076391
Cu       0.00000000       8.66078949       9.59222507  F       0.00000000       0.00000000       0.00000000      -0.01242907      -0.00433783       0.65344924      -2.35163045
Cu       2.83047748      20.17817879       6.76174784  F       0.00000000       0.00000000       0.00000000      -0.00690818      -0.00138602       0.62643242      -3.45381451
Cu       2.80258021       8.63031966      12.40914612  T      -0.29277677      -0.97006274      -0.49883465       0.00910309       0.00390575       0.00353205      -4.23797703
Cu       2.85774098      14.47951978      12.32178749  T       0.17668160      -0.64056584       1.09612182      -0.00382361      -0.00253559       0.00309759      -4.22527552
Cu       2.46506177       3.38310331      12.80612352  T      -0.57598881       2.71052970      -0.81039511       0.01723192      -0.00716944       0.01234844      -3.70622039
Cu       0.00000000      14.41948509       9.59222507  F       0.00000000       0.00000000       0.00000000       0.00924992       0.28822368       0.14042285      -3.67729402
Cu       0.05320344       2.92738386      15.39584571  T       0.46840598       0.48795556       0.30802562      -0.01088246       0.00918784      -0.00080805      -4.21726036
Cu       5.73091867      20.09897136      15.16162649  T      -0.42569133       0.22275630       1.38224573       0.00154369      -0.01268014       0.01511554      -3.84657764
Cu       5.60567787       8.74475329      15.20506399  T       0.63173245      -0.71289321      -0.00973794      -0.01021251      -0.00467102      -0.00242776      -4.21515560
Cu       8.49624112      20.17615596      12.40600172  T      -0.13911397       0.85521288      -0.66138626       0.02412587      -0.00414290      -0.00400600      -4.18431664
Cu       8.38938637       8.86682041      18.00643618  T      -0.73941617       0.70235584      -1.17997387       0.00192471      -0.00456153       0.02949112      -4.27392721
Cu       8.27991858      14.33727694      17.92867860  T       1.02083109     -11.94218316      -4.69724866       0.00934035      -0.03876948      -0.01202844      -4.04895306
Cu       8.56799346       2.88508561      18.23548893  T      -0.41275540       0.16532127      -0.13490962      -0.00250649       0.00016835       0.02352060      -4.18265009
Cu       5.67774118      14.56804754      15.05198899  T      -0.56540574       0.64276698      -0.32985531       0.00043519      -0.02392392       0.01552421      -4.18654585
Cu       5.56161909       2.77601542      20.73848016  T      -0.73315459      -0.73779800       0.98518767       0.00672401       0.00543280       0.01064371      -3.76506042
Cu       5.66095495      20.17817879       9.59222507  F       0.00000000       0.00000000       0.00000000       0.00204455      -0.00150814       0.14747031      -4.23025799
Cu       5.66095495       8.66078949       9.59222507  F       0.00000000       0.00000000       0.00000000      -0.00930805      -0.00653847       0.64936566      -2.34870958
Cu       8.49143314      20.17817879       6.76174784  F       0.00000000       0.00000000       0.00000000      -0.00699357      -0.00143009       0.62644458      -3.45382929
Cu       8.47186569       8.64361231      12.41877436  T      -0.83726867      -1.06692696       0.74235424       0.00221749       0.00050717       0.00193731      -4.23958015
Cu       8.55751416      14.49663723      12.33446790  T       0.23553988       0.66841719       0.23494061       0.01549833       0.01442077      -0.02413899      -4.23657036
Cu       8.12608159       3.38048580      12.80570236  T      -1.84885245       1.85973701      -0.13558364       0.01682466      -0.00143281       0.01606503      -3.70630360
Cu       5.66095495      14.41948509       9.59222507  F       0.00000000       0.00000000       0.00000000       0.00972127       0.29255956       0.14263794      -3.67939687
Cu       5.71204858       2.92887600      15.39705597  T       1.02598187      -0.89669620       0.62265012      -0.00595621       0.00570445      -0.00018483      -4.21835613
W        0.01018772      20.16719361      12.37853824  T       0.04108048       0.58345578      -2.62840941      -0.00298884      -0.01353129       0.02068910     -11.70399857
W       -0.08104602       8.80776766      18.02927579  T      -3.11104436       0.51590055       0.79202096       0.00959616       0.01762078      -0.00367063     -11.68047714
W        2.84163337      14.35224127      15.12951889  T      -0.21778865       1.82854676       1.28401696       0.01910622      -0.00867945       0.01506850     -11.73113441
W        2.72155659       2.83017138      20.85830136  T      -1.85923591      -1.96585603       1.92195755       0.02087390      -0.00365377      -0.00866139      -9.94216061
W        0.00000000      20.17817879       6.76174784  F       0.00000000       0.00000000       0.00000000       0.03322313      -0.03634297       2.32915211      -7.39227962
W       -0.01903874       8.66598891      12.41678018  T       0.84039989       1.09303952       0.72853852      -0.03018014      -0.02787633       0.01052099     -11.73673534
W        2.83047748      14.41948509       9.59222507  F       0.00000000       0.00000000       0.00000000       0.17385870       1.28762507       0.38450521      -9.74032402
W        2.87914051       2.95242704      15.42224077  T       1.78843871      -0.91532348       0.75138131      -0.00649861      -0.00183053      -0.00369811     -11.78036308
W        5.67241940      20.16546719      12.37935087  T      -0.18263054       1.16031108       1.40576143      -0.02010320      -0.01992853      -0.01281942     -11.70242310
W        5.54521678       8.95062892      18.02022593  T      -0.87035157       2.04943511       2.90316185       0.03484769      -0.03580947      -0.04461887     -11.59824181
W        8.48466874      14.50911263      15.15584574  T       1.48042083      -1.40398546      -2.00857177       0.00552472      -0.00308307      -0.01332857     -11.63480377
W        8.38820666       2.81441860      20.85596838  T      -1.35394252      -1.51501448      -2.21805259      -0.00369769       0.01512700      -0.01252013      -9.94279099
W        5.66095495      20.17817879       6.76174784  F       0.00000000       0.00000000       0.00000000       0.03319867      -0.03641184       2.32938361      -7.39216471
W        5.64327896       8.66629984      12.41397393  T       0.17714361       1.93291636       2.84401692      -0.02479643      -0.01883107       0.01229203     -11.74884415
W        8.49143314      14.41948509       9.59222507  F       0.00000000       0.00000000       0.00000000       0.18383105       1.32149529       0.43619880      -9.72936630
W        8.54122874       2.95125163      15.42276107  T      -1.46173699      -1.62168935      -2.12236477      -0.01064947       0.00240061      -0.00295539     -11.77758980
Se       3.76561062      19.32361916      16.55450751  T      -0.28605098      -0.02046938      -0.06885729       0.01625130       0.02921289       0.04642016      -3.71288443
Se       4.28511554       7.38601157      16.75698501  T       0.54090654       1.27515900       0.60322681      -0.03259747      -0.06575955      -0.04413190      -4.34817696
Se       1.33485887      18.69085005      13.69022721  T      -1.44622495       0.62426083      -1.50732133      -0.00267175      -0.01849245      -0.01120242      -4.36775541
Se       1.23639068       7.39600048      19.37192915  T      -1.36884416       1.98939868      -1.24885896      -0.03002732       0.03631765      -0.01282683      -4.02641773
Se       1.58682939      15.43727296      16.85009649  T       2.05252434       1.24632324       0.02430606      -0.00995726       0.00437033      -0.02074426      -4.36729622
Se       1.52251511       4.35429807      16.77668396  T      -0.25088439      -0.92789718       0.14949573      -0.00645135       0.01658946       0.01192188      -4.31122303
Se       4.05356889      15.99628028      13.91140468  T      -0.88296730       0.46950630       1.64239670      -0.00207703      -0.02059273       0.02755050      -4.33582640
Se       4.06010049       4.44661004      19.73294759  T      -0.71831260      -0.82966615       1.27340520       0.00263095       0.01439689      -0.00134184      -4.33665705
Se       2.11118286      11.73296059      19.13639585  T       1.10492476       0.12670683      -1.14387605      -0.01288116      -0.04697947       0.02817099      -3.25832891
Se       1.48883166       1.37284182      19.50123455  T       1.43782984      -0.15382897       2.33648676      -0.00690630      -0.02155011       0.00004370      -4.44197941
Se       4.35630362      12.81797222      16.16055902  T      -1.11991203      -1.24459977      -0.38939973      -0.02857244       0.01619997       0.01415778      -4.43928576
Se       4.12017274       1.46943976      22.15825670  T      -1.76426372       2.62397148      -1.16969639      -0.02169259      -0.00895855       0.00491455      -4.03686762
Se       4.16336384      10.36556325      19.38975900  T       0.05183490      -0.68861570      -1.64043802      -0.03684846       0.01340431       0.07502468      -3.92555499
Se       4.36649833      21.57347540      13.78305262  T       0.07168474       0.02220555      -1.40872033       0.01464533       0.01408995      -0.02253969      -4.38199139
Se       1.27790442      10.14711265      16.59287392  T      -2.50386415       0.69015134       1.48354923       0.00077023      -0.02992719       0.01939658      -4.31559277
Se       2.01572101      20.87964675      16.44470812  T      -0.95739853      -0.66646273      -0.62566664      -0.00378650       0.02120749       0.00230323      -3.05338526
Se       4.29427099      18.74556732      11.05601883  F       0.00000000       0.00000000       0.00000000       0.01587142       0.01985656       0.09007743      -4.34278584
Se       4.29427099       7.22817707      11.05601883  F       0.00000000       0.00000000       0.00000000       0.31580460       0.17208278      -0.35461271      -4.54233217
Se       1.36668432      18.74556732       8.12843227  F       0.00000000       0.00000000       0.00000000      -0.31632173       0.49205896      -1.68175721      -4.50927544
Se       1.30096390       7.22987854      13.75765101  T      -2.26532420      -0.47242334      -1.35133054      -0.00253225       0.00585623      -0.01021129      -4.35012436
Se       1.46379328      15.85209751      10.95890999  F       0.00000000       0.00000000       0.00000000       0.56200051      -0.51928377      -0.98202181      -4.43510580
Se       1.46379328       4.33470774      10.95890999  F       0.00000000       0.00000000       0.00000000       0.00887488       0.08418868      -0.02534212      -1.94166195
Se       4.19716167      15.85209751       8.22554111  F       0.00000000       0.00000000       0.00000000      -0.66662502      -1.11156559       0.94471341      -4.03715038
Se       4.20457131       4.40083158      14.07782948  T       1.88264796      -1.12165566       0.01393826       0.01392262       0.00982752      -0.00829605      -4.42923021
Se       1.42042128      13.04311437      13.74507819  T       1.86860062       0.16974083       2.28728076       0.02848414      -0.00049996       0.02212898      -4.30938530
Se       1.55460002       1.54908619      14.01819655  T       0.07978470       1.99026766       0.19004022      -0.02016529       0.00611696      -0.00329072      -4.39492321
Se       4.19716167      12.98687172      10.95890999  F       0.00000000       0.00000000       0.00000000      -0.08624590       0.08654664      -0.55638993      -4.40872955
Se       4.23678876       1.46748906      16.69055346  T       0.48673487      -1.02619688      -1.47904968       0.00597989       0.00862118       0.01138321      -4.33017683
Se       4.27670309      10.12562404      13.68564831  T       0.13611497      -0.20914837      -0.59181680      -0.00278380      -0.00021904       0.01270808      -4.32945347
Se       4.29427099      21.61079216       8.12843227  F       0.00000000       0.00000000       0.00000000       0.27663273      -0.43646485      -1.62561619      -4.50095081
Se       1.36668432      10.09340286      11.05601883  F       0.00000000       0.00000000       0.00000000      -0.34597099      -0.29783842      -0.32789123      -4.51375389
Se       1.36668432      21.61079216      11.05601883  F       0.00000000       0.00000000       0.00000000       0.00853592      -0.02727729       0.14502311      -4.33633471
Se       9.42957948      19.36509349      16.53632320  T      -0.67747041       0.26532768       0.23577502       0.00693874       0.02113874      -0.03206895      -3.20598364
Se       9.88102697       7.34097248      16.73155456  T       1.01656324      -0.25237016      -0.99814432       0.03613006       0.03347361       0.03238674      -4.31878424
Se       6.99225564      18.67043681      13.67447399  T      -0.66822825       1.75126640       0.20141520      -0.00484891      -0.00665091      -0.02220619      -4.38113737
Se       6.84864556       7.63677532      19.44374421  T      -0.47575957       2.79021313      -0.96367063       0.00696836      -0.03396818       0.03357795      -4.03477812
Se       7.11751809      15.96872886      16.44257019  T      -1.49742348      -1.27363326      -3.66840176      -0.00188119      -0.00895549       0.01430988      -4.27666378
Se       7.18173354       4.35298517      16.77594908  T       1.16698042       0.63898382      -1.25266771      -0.00068618       0.00922972       0.01333106      -4.31082106
Se       9.90336243      15.92487416      13.88656921  T      -0.12512142       0.68309112       1.15194188       0.01313441       0.01672183      -0.00414110      -4.32292557
Se       9.72456927       4.43917006      19.73858473  T      -2.01045367       0.44645536       1.04388497       0.00013594       0.00169094       0.00928687      -4.33327007
Se       7.17092700      12.55185235      19.09015584  T      -1.04091895      -2.81498132      -2.40954372       0.02046879       0.04581773       0.03904283      -2.85253239
Se       7.13708626       1.37755277      19.49234195  T      -1.16911064       2.47053027       1.53215540      -0.00480452      -0.01195038      -0.00124419      -4.43993139
Se       9.77192248      13.04967412      16.52733561  T       1.76285006       0.42119167      -0.90521327      -0.00621095       0.00183109       0.03290584      -4.35816908
Se       9.78451208       1.43329381      22.13659543  T      -1.45127754       2.55196124      -0.14467353      -0.01221353      -0.01406345       0.00518298      -4.03799486
Se       9.89720282      10.25280458      19.30652243  T       1.18177835      -0.13318332      -1.67198245       0.02432960      -0.00576925      -0.03687416      -4.03157997
Se      10.02826506      21.57707555      13.77408729  T       0.14761804      -0.98045023      -0.92403280      -0.00852016       0.02390703      -0.02300007      -4.37724161
Se       6.91226040      10.27687349      16.59738674  T      -1.37334457      -0.83809528       0.64534561       0.03678774       0.04317756      -0.02860121      -4.37045193
Se       7.63119055      20.75484865      16.56578972  T      -0.77710001      -1.09132191      -1.21163883       0.01840585      -0.00950813       0.01966735      -3.23509645
Se       9.95522594      18.74556732      11.05601883  F       0.00000000       0.00000000       0.00000000       0.02203927       0.01881985       0.08972031      -4.34391928
Se       9.95522594       7.22817707      11.05601883  F       0.00000000       0.00000000       0.00000000       0.30499420       0.21436299      -0.33390328      -4.54159546
Se       7.02763939      18.74556732       8.12843227  F       0.00000000       0.00000000       0.00000000      -0.31704974       0.49214324      -1.68070841      -4.50929403
Se       6.96538383       7.25412825      13.77532548  T      -1.28003125       0.71845874       0.57032203       0.00331350       0.01338246       0.01697316      -4.35240841
Se       7.12474823      15.85209751      10.95890999  F       0.00000000       0.00000000       0.00000000       0.62144125      -0.57300138      -0.95094979      -4.42827272
Se       7.12474823       4.33470774      10.95890999  F       0.00000000       0.00000000       0.00000000       0.01161684       0.07906692      -0.02365839      -1.94100463
Se       9.85811710      15.85209751       8.22554111  F       0.00000000       0.00000000       0.00000000      -0.67451799      -1.11919355       0.93310273      -4.04047823
Se       9.86663057       4.39981707      14.07845918  T       0.02994303      -0.97963184       0.01612079       0.00452172       0.00161225      -0.00874152      -4.43120956
Se       7.16792892      13.08121226      13.77896892  T      -0.35650018       0.52746065       0.34093268      -0.00164333      -0.02165173      -0.00540091      -4.31564617
Se       7.21431362       1.54865509      14.02045237  T       0.79610233      -0.15834056      -1.77877975      -0.01614325       0.00721576      -0.00556673      -4.39569092
Se       9.85811710      12.98687172      10.95890999  F       0.00000000       0.00000000       0.00000000      -0.08174991       0.07985839      -0.58382607      -4.41146517
Se       9.90067528       1.46694228      16.69045368  T      -2.62915875      -1.05215238      -0.94865413       0.00096713       0.00808327       0.01080114      -4.33131647
Se       9.94510492      10.11952102      13.71293190  T       0.66525046       0.29482762      -0.52592817       0.00426720       0.00596513      -0.01213921      -4.34243059
Se       9.95522594      21.61079216       8.12843227  F       0.00000000       0.00000000       0.00000000       0.27613264      -0.43594924      -1.62579513      -4.50087929
Se       7.02763939      10.09340286      11.05601883  F       0.00000000       0.00000000       0.00000000      -0.31326428      -0.27628869      -0.34656605      -4.51138163
Se       7.02763939      21.61079216      11.05601883  F       0.00000000       0.00000000       0.00000000      -0.00432359      -0.01681348       0.14862965      -4.34028435
O        8.97944901      15.68949241      19.27834502  T       3.20324024       6.83066145       5.88132876      -0.01435792      -0.02076951       0.08321762      -6.88524961
C        8.49901770      15.87648839      20.42394737  T       2.57411425       5.55958349       0.67516333       0.01059219       0.05512887      -0.03229773      -7.65587711
C        7.29968616      16.72904965      20.65800304  T      -0.16885117       1.07343633       1.88062347      -0.02732895       0.01406307      -0.01376051      -9.68114567
H        7.14767828      13.26716879      20.41324086  T      -0.88882099      -0.45445254       0.89135747       0.00329744      -0.02961564      -0.01115036      -3.37085009
H        9.01860668      15.42016763      21.28884099  T      -0.55486692      -0.24784137      -0.30180247       0.02288491      -0.03051560      -0.03080404      -3.74068451
H        6.91287436      16.52657758      21.66859563  T      -0.10219129      -0.03786796       0.14392390       0.01310761       0.01208366       0.01788887      -3.63781619
H        6.52009510      16.51135522      19.91293415  T       0.10799420      -0.25059810      -0.24597806      -0.02030334      -0.01092188      -0.02440324      -3.65890956
H        7.55650189      17.79797240      20.58105109  T      -0.44428520       0.13396158       0.24740168       0.04368605       0.00043510      -0.00452461      -3.65135574
H        4.20427399      19.79087370      17.94248213  T      -2.13014260       2.12200664      -1.10523610      -0.02790916       0.00171965      -0.05365247      -3.17069697
