121
Lattice="11.32190990447998 -0.0 -6.999999919513338e-16 -3.700000002833815e-15 23.034778594970703 -5.66095495223999 -0.0 4.2000001634662394e-15 33.96573257446289" Properties=species:S:1:pos:R:3:move_mask:L:1:momenta:R:3:forces:R:3:energies:R:1 adsorbate_info="_JSON {\"site\": {\"coordinates\": [1.36668432, 7.22817707, 19.45034218], \"connectivity\": 1, \"topology\": [51], \"n_vector\": [0.017120652066659456, 0.16864679399110394, 0.9855278495046877], \"h_vector\": [1.0, 0.0, 0.0], \"site_formula\": {\"Se\": 1}}, \"smiles\": \"Cl\", \"mdf\": 1.7127647297895967, \"adsorbate_formula\": \"C2H6O\"}" bond_change_count=0 energy=-609.7137451171875 stress="0.00019929176778532565 -3.3274830002483213e-06 -1.2113227057852782e-05 -3.3274830002483213e-06 5.608307765214704e-05 -3.4199629226350226e-06 -1.2113227057852782e-05 -3.4199629226350226e-06 8.406901179114357e-05" free_energy=-609.7137451171875 pbc="T T F"
Cu       0.01617102      20.08658089      15.16398945  T       0.35372218       0.04430982       1.76934425       0.01759238       0.01802868      -0.00707550      -3.91882753
Cu      -0.12066682       8.73345510      15.21537899  T       0.40860538       0.69289390      -0.21812097       0.01911209       0.01757414      -0.01438704      -4.22535324
Cu       2.83808987      20.18223906      12.40275782  T       0.58702402       0.51485211       1.37379056       0.00351954      -0.00315985       0.01024927      -4.19437408
Cu       2.72061522       8.82192178      18.08551612  T       0.53892151       0.22956757      -0.25636097       0.01401068       0.03378618      -0.00772960      -4.19299507
Cu       2.46444679      13.42143364      17.65561528  T      -1.09295890      -2.13694935      -1.19818809      -0.00720358      -0.05310224       0.00210196      -3.42144227
Cu       2.91118649       3.22053517      18.39441548  T      -1.04001972       1.63813917      -0.68011344      -0.03570126      -0.04080897       0.00674971      -4.20928860
Cu       0.04526241      14.45923704      15.14834707  T      -1.44361829       0.43889112      -0.45775274      -0.00121889       0.00576393       0.00034664      -4.19900417
Cu      -0.51510763       2.78754013      20.65046119  T      -0.24712078      -1.68972908       0.05108113       0.07561508      -0.03974281      -0.01572357      -3.56498289
Cu       0.00000000      20.17817879       9.59222507  F       0.00000000       0.00000000       0.00000000      -0.00128773      -0.00141389       0.14869477      -4.23366165
Cu       0.00000000       8.66078949       9.59222507  F       0.00000000       0.00000000       0.00000000      -0.00812614      -0.00620194       0.65600836      -2.35180736
Cu       2.83047748      20.17817879       6.76174784  F       0.00000000       0.00000000       0.00000000      -0.00437795       0.00317758       0.62825090      -3.45671892
Cu       2.79326676       8.63095758      12.41813198  T       1.18213507      -0.48539976       0.36782095       0.02100264      -0.00271893      -0.00091422      -4.23350048
Cu       2.90773092      14.51803150      12.33343830  T       0.10242303      -0.30660285       0.03375186      -0.00215144       0.00607196      -0.02480590      -4.20822239
Cu       2.36576269       3.47548501      12.91245953  T      -3.14688706       0.35935312       0.89469989       0.01087389      -0.01254564       0.03414282      -3.74583220
Cu       0.00000000      14.41948509       9.59222507  F       0.00000000       0.00000000       0.00000000       0.01531846       0.28613922       0.14013703      -3.67928052
Cu      -0.06746204       3.05338363      15.52576105  T       0.74434654       0.32737129       0.36052327       0.00560666      -0.00059655       0.00330654      -4.22125196
Cu       5.66126954      20.17521609      15.16094878  T      -0.27875900      -0.80195332       1.74080059      -0.00444027      -0.01010312       0.00518750      -3.90840912
Cu       5.54725541       8.71988589      15.21858854  T       0.97712303      -0.25156127       0.67106949      -0.00631099      -0.00317035       0.00425017      -4.21211290
Cu       8.49965757      20.18238841      12.41182406  T       0.41490203      -0.11385739      -0.17684226       0.00176175       0.00292703       0.00321897      -4.18122244
Cu       8.37948209       8.90795076      18.06490060  T       0.09254992       0.83882171      -0.39516153       0.01880596      -0.00523220      -0.01196016      -4.19951200
Cu       8.19148753      13.45341813      17.66253918  T      -0.76324096      -2.52902566       0.95695766      -0.03996598      -0.03552142       0.01959172      -3.42269373
Cu       8.52437181       3.00657707      18.37107823  T       0.36469788      -0.11543720      -0.71956689       0.00356887      -0.00452817       0.00022008      -4.15836716
Cu       5.70639981      14.46285701      15.15179187  T      -0.49349223      -0.14984605      -0.45688701      -0.00682475      -0.01059216       0.00862803      -4.19044685
Cu       5.71708452       3.04199026      20.80425875  T      -0.55412646      -0.48731882      -0.40704816      -0.01519400       0.00011596       0.02160624      -3.89027166
Cu       5.66095495      20.17817879       9.59222507  F       0.00000000       0.00000000       0.00000000       0.00140304      -0.00452412       0.14707926      -4.23459864
Cu       5.66095495       8.66078949       9.59222507  F       0.00000000       0.00000000       0.00000000      -0.01108252      -0.00694270       0.65737194      -2.35146427
Cu       8.49143314      20.17817879       6.76174784  F       0.00000000       0.00000000       0.00000000      -0.00431675       0.00212527       0.62729192      -3.45652342
Cu       8.46146067       8.63204869      12.41462194  T      -0.50597757       0.57744167       0.33805989      -0.01754000      -0.00176148       0.00136705      -4.23545170
Cu       8.56439475      14.51260911      12.33131500  T       0.21167992      -0.01093339      -1.68539143       0.00748594       0.01688792      -0.02052710      -4.20614529
Cu       8.03428927       3.45167423      12.89755939  T      -2.93900989       2.06325558       0.95359580      -0.00058343      -0.00964702       0.02620158      -3.73849297
Cu       5.66095495      14.41948509       9.59222507  F       0.00000000       0.00000000       0.00000000       0.01528487       0.28599471       0.14122324      -3.67956948
Cu       5.58333565       3.04453234      15.53930869  T       1.03644908      -1.23809908      -0.55100482       0.02707574       0.00225501       0.00373625      -4.20967388
W        0.00972196      20.16926951      12.37650031  T       0.96432627      -0.22972578       1.20315139      -0.00130504      -0.00703671       0.05307023     -11.70822334
W       -0.10251750       9.04757028      18.05530580  T      -0.46643832       2.74255501      -2.46215960      -0.00692536       0.02693099       0.00197285     -11.60601330
W        2.85674601      14.36167513      15.15927715  T      -1.69627903       0.07989369      -0.64108911      -0.01449822       0.00122127      -0.01098655     -11.73015499
W        3.15838846       3.62881290      21.22999520  T       0.14466115      -3.46559774      -1.94135022      -0.03140895       0.01115894      -0.01871355     -10.88106537
W        0.00000000      20.17817879       6.76174784  F       0.00000000       0.00000000       0.00000000       0.03570347      -0.03943308       2.32198739      -7.39642239
W       -0.02707170       8.67169208      12.41762846  T       0.44045008      -0.12444602       0.41087702      -0.02886986      -0.01140891       0.00666577     -11.73704720
W        2.83047748      14.41948509       9.59222507  F       0.00000000       0.00000000       0.00000000       0.20086691       1.33983362       0.45232391      -9.73187351
W        2.75090700       3.08458790      15.57227159  T       0.53083157      -2.02050254       0.25729294      -0.00031996       0.01223717      -0.00834994     -11.74967766
W        5.65968387      20.18146415      12.37718912  T      -0.88895972       1.91883328      -2.28211111      -0.02179316      -0.00164267       0.01040263     -11.70639038
W        5.54981614       9.04572823      18.07647807  T       0.58276707       0.58680242       1.45656090      -0.02517386       0.01502109      -0.00490561     -11.62258816
W        8.52619281      14.35833293      15.15422687  T       0.97513415      -1.29077522      -1.21047879      -0.00740946       0.00530294      -0.00580679     -11.74138069
W        8.36526692       2.96606765      20.99937891  T      -1.01867328      -0.35983707      -1.13863809      -0.02658501       0.02966901       0.01494581     -10.30239582
W        5.66095495      20.17817879       6.76174784  F       0.00000000       0.00000000       0.00000000       0.03703437      -0.03920994       2.32269859      -7.39561272
W        5.63391635       8.67292084      12.41735607  T       2.19505768      -0.99830169       2.40273597      -0.03971241      -0.03478874       0.00346601     -11.73815155
W        8.49143314      14.41948509       9.59222507  F       0.00000000       0.00000000       0.00000000       0.19807415       1.33510566       0.44258225      -9.73345089
W        8.42711225       3.05079527      15.53713195  T      -1.19493295      -0.57003871       2.12365125       0.00154041      -0.00071656      -0.00417084     -11.76669312
Se       3.77107062      19.46079932      16.59768753  T      -0.04209251       2.09417616      -1.81190032       0.05292420      -0.05824389      -0.01625280      -3.21919966
Se       4.27682327       7.43780037      16.85819854  T       1.86320624       0.48257295       0.76539609       0.04171434       0.01458281       0.00268037      -4.35119724
Se       1.33261388      18.68596795      13.68277200  T      -0.51274485      -0.14005929      -1.51060762      -0.00305393       0.01243722      -0.01004278      -4.37110662
Se       1.13308259       7.58927668      19.42572489  T       0.38853807      -1.57292801      -9.98917502      -0.03026514       0.02399143       0.00320266      -3.97639990
Se       1.55102737      15.48447730      16.81873551  T       1.03096939       0.89032035      -0.97465356       0.00440726      -0.02192993      -0.02844556      -4.38189793
Se       1.39292765       4.49538914      16.91858120  T       1.87124688      -0.50734153      -0.88565231       0.00209028      -0.01927095      -0.02336439      -4.32013750
Se       4.15301066      15.96343249      13.98103434  T      -0.88295340       1.30050673       1.38636234       0.00512876      -0.01535564       0.03032487      -4.33393764
Se       4.48170434       4.70096731      19.59079281  T      -0.16870063       0.21038805      -0.28396714      -0.00281554       0.00548063      -0.03706509      -4.34881353
Se       1.90317206      11.68967233      19.13702720  T       2.23490135      -0.09951391      -1.61294473       0.02941376       0.00538515      -0.01153724      -3.31193924
Se       1.72030997       2.06908577      20.18076035  T       0.70791177       0.76295410       1.33020405      -0.01693518       0.01196513      -0.00778314      -4.40528870
Se       4.27740392      12.79838443      16.27479934  T      -0.82857680      -0.06385157      -0.70552445      -0.01267802       0.01591015      -0.01581193      -4.42841625
Se       4.43781165       2.27828949      22.63976485  T      -1.02155875       0.40050080      -1.99478486       0.01435802      -0.01639595      -0.00161466      -4.02964115
Se       4.10817674      10.46858253      19.38523229  T       2.40483727      -0.99166302      -0.87942056       0.02247763      -0.00405866      -0.00291975      -3.91521144
Se       4.35398902      21.64076051      13.72728394  T       1.74693603       0.26728743      -1.16088238      -0.00307110      -0.00733204      -0.00437685      -4.37220860
Se       1.30280017      10.21487042      16.52614225  T      -1.30105744      -0.58851324      -0.26435277      -0.01093967      -0.01904518      -0.00422372      -4.32470226
Se       1.90806791      20.73514252      16.63543225  T       1.98973099      -0.79711647       0.75423205      -0.05861801       0.04981495      -0.01794612      -3.20363379
Se       4.29427099      18.74556732      11.05601883  F       0.00000000       0.00000000       0.00000000       0.02354895       0.02929898       0.12038450      -4.33984900
Se       4.29427099       7.22817707      11.05601883  F       0.00000000       0.00000000       0.00000000       0.31223890       0.21142192      -0.31523326      -4.53978109
Se       1.36668432      18.74556732       8.12843227  F       0.00000000       0.00000000       0.00000000      -0.31544480       0.48826188      -1.68117714      -4.50853205
Se       1.28265459       7.26841753      13.79995544  T      -0.89252059       1.05261066      -1.18267573      -0.01074161       0.00726470      -0.01881448      -4.34314156
Se       1.46379328      15.85209751      10.95890999  F       0.00000000       0.00000000       0.00000000       0.62264872      -0.55142820      -0.95245540      -4.43321085
Se       1.46379328       4.33470774      10.95890999  F       0.00000000       0.00000000       0.00000000       0.03045144       0.05350780       0.02557129      -1.92237544
Se       4.19716167      15.85209751       8.22554111  F       0.00000000       0.00000000       0.00000000      -0.68159020      -1.12437570       0.93673319      -4.04079866
Se       4.08251884       4.50453208      14.20289877  T      -0.30519370      -1.16890461       0.38303381       0.02298897       0.02192201       0.02281513      -4.42897987
Se       1.48257926      13.06447949      13.71088334  T      -1.36766614       0.64345326       0.26538958       0.02423229       0.01511186       0.01915997      -4.31527519
Se       1.43987143       1.67270579      14.16272872  T       0.02999602      -0.08131780       0.32220212       0.00073114       0.00036094       0.03657921      -4.39254379
Se       4.19716167      12.98687172      10.95890999  F       0.00000000       0.00000000       0.00000000      -0.08320250       0.11534692      -0.56709719      -4.41415977
Se       4.09716520       1.63381641      16.89014315  T      -0.37091845       0.64109924      -0.63616221      -0.01214241       0.02458511      -0.00663208      -4.32139397
Se       4.26301521      10.12863876      13.69206717  T       1.53880901      -0.41695707      -2.07042806      -0.01166843       0.00049379      -0.00723623      -4.33815241
Se       4.29427099      21.61079216       8.12843227  F       0.00000000       0.00000000       0.00000000       0.25721222      -0.41816545      -1.61370039      -4.49311352
Se       1.36668432      10.09340286      11.05601883  F       0.00000000       0.00000000       0.00000000      -0.35885486      -0.31801602      -0.32476065      -4.51221848
Se       1.36668432      21.61079216      11.05601883  F       0.00000000       0.00000000       0.00000000       0.01285643       0.04357536       0.10437127      -4.33240700
Se       9.38765834      19.29429739      16.45150154  T       2.42192288       1.63188265      -0.22796771      -0.00965215      -0.02375344       0.01246350      -3.23865652
Se       9.89737265       7.48659338      16.82731344  T      -0.48873465       0.19139871       1.02904483      -0.00555002       0.01925811       0.04185659      -4.34549141
Se       6.97300902      18.72137437      13.71673030  T       0.07595459       0.83309650      -0.69104728       0.01228736      -0.01137790      -0.01413841      -4.37899208
Se       6.84453219       7.73201019      19.51733550  T      -1.99234307       0.72010934      -0.75320547      -0.00351690       0.02319260      -0.01862276      -4.03055096
Se       7.22997888      15.48865227      16.81269503  T       0.87909028      -1.09591925      -0.59088336      -0.01839313      -0.00966102      -0.00265365      -4.38643694
Se       7.09092955       4.45882627      16.90094476  T      -1.08716259      -0.27031827      -1.92359488       0.01517243      -0.02296665      -0.02489339      -4.31660366
Se       9.81828909      15.96441547      13.98235773  T      -0.76063021       0.02306689       1.73181630       0.00686998       0.00844407      -0.00119362      -4.33026838
Se       9.58170913       4.67320575      19.85525646  T      -1.26418851       0.48715001       0.67014252      -0.03985836      -0.01016745      -0.01076894      -4.30133533
Se       7.64958867      11.73675913      19.15545770  T       0.03649536       1.07477748      -1.89357001       0.01876816      -0.00077179       0.01110692      -3.29308081
Se       7.18401309       1.44381520      19.65871550  T       0.82133014       1.07077450       2.04887121       0.01607931      -0.00411872       0.00039915      -4.36554575
Se       9.95010802      12.78563203      16.25582837  T      -1.37558672      -0.87848739      -0.43852990       0.01803625      -0.02112244      -0.02072047      -4.43850899
Se       9.70676114       1.65394506      22.41495581  T      -0.83005177       2.14775107      -2.21766070      -0.03099798      -0.00369108      -0.02339694      -4.02518368
Se       9.82406126      10.49547135      19.39543549  T       2.06360405      -1.38369440      -0.47295805       0.02908927      -0.03166106      -0.01211920      -3.91597152
Se      10.03668728      21.60066755      13.76390368  T       0.85061265      -0.31250582      -0.15895193      -0.00458242      -0.00153019      -0.03069075      -4.36744070
Se       6.90349181      10.25567464      16.53204497  T       0.37216884      -1.01642023       0.92991275       0.01463958      -0.00333941       0.01013961      -4.32521629
Se       7.62527322      20.71963566      16.57401277  T      -1.72617655      -0.13749069      -2.34592501      -0.00436751       0.00507210       0.00475474      -3.20026422
Se       9.95522594      18.74556732      11.05601883  F       0.00000000       0.00000000       0.00000000      -0.02155181       0.01660913       0.09686075      -4.34145594
Se       9.95522594       7.22817707      11.05601883  F       0.00000000       0.00000000       0.00000000       0.31456816       0.18974181      -0.32958901      -4.54158735
Se       7.02763939      18.74556732       8.12843227  F       0.00000000       0.00000000       0.00000000      -0.31577981       0.48912740      -1.67943382      -4.50862503
Se       6.94636747       7.26651210      13.79228236  T       1.09697824       0.64457935      -0.63364521       0.00425325      -0.00057292       0.00166811      -4.34754515
Se       7.12474823      15.85209751      10.95890999  F       0.00000000       0.00000000       0.00000000       0.61776263      -0.54491144      -0.94660914      -4.43382454
Se       7.12474823       4.33470774      10.95890999  F       0.00000000       0.00000000       0.00000000       0.02712453       0.05726496       0.00879274      -1.92344952
Se       9.85811710      15.85209751       8.22554111  F       0.00000000       0.00000000       0.00000000      -0.67982328      -1.12316251       0.93816900      -4.04032564
Se       9.74744446       4.49483403      14.18188312  T      -0.91278552      -0.47713488       1.33174571       0.00820146      -0.00256808       0.01464062      -4.42739487
Se       7.14431870      13.06458656      13.71390929  T      -0.95693645       1.10674330       0.52857777      -0.01929091      -0.00222247       0.00192198      -4.31991577
Se       7.07702513       1.65996721      14.14548153  T       2.74829327      -0.89611124      -0.69396571      -0.00821142       0.01927460       0.01521778      -4.39703369
Se       9.85811710      12.98687172      10.95890999  F       0.00000000       0.00000000       0.00000000      -0.08028702       0.11078268      -0.56796706      -4.41481972
Se       9.79165248       1.56732171      16.80631801  T      -0.54244336       1.13073104      -0.64250751      -0.00616796       0.01988388      -0.02406005      -4.34260845
Se       9.92328442      10.13715719      13.68143211  T       1.07715994      -1.24467152      -1.21839603       0.00290173       0.00256592      -0.00441672      -4.33409119
Se       9.95522594      21.61079216       8.12843227  F       0.00000000       0.00000000       0.00000000       0.26112083      -0.41581094      -1.61308300      -4.49397373
Se       7.02763939      10.09340286      11.05601883  F       0.00000000       0.00000000       0.00000000      -0.35832670      -0.30724657      -0.32955492      -4.51237631
Se       7.02763939      21.61079216      11.05601883  F       0.00000000       0.00000000       0.00000000       0.03497070       0.03615077       0.11377546      -4.33756590
O        1.36959635       7.56973110      22.82937384  T      -1.83535060       1.67172217       5.18788387      -0.07263777      -0.05310559       0.01832744      -6.14032841
C        1.10969398       6.15181925      22.97618424  T      -0.74717346       0.88953317       2.23955251       0.00654209      -0.05926239      -0.01428205      -9.44066525
C        2.32891938       5.33983614      22.51154489  T       0.05751243      -0.77331658       1.46187631       0.00939779      -0.07313281      -0.02718294      -9.58317661
H        1.18984480       7.79006544      21.88475944  T       0.02681978      -0.04478823       0.61460929       0.04465949       0.06897186      -0.01998456      -3.52443004
H        0.91945280       5.98357070      24.04691567  T       0.03510805      -0.33777572       0.58046350       0.00137098      -0.00486353      -0.00690874      -3.50022650
H        0.20029103       5.86564573      22.41418686  T      -0.06337596      -0.02339364       0.15697988      -0.01647359       0.01744696      -0.00569324      -3.56017566
H        3.24700802       5.72032444      22.95749560  T       0.05947593       0.02278261      -0.03938046       0.02574304      -0.00729924       0.00981829      -3.52500057
H        2.41450371       5.43658548      21.40217849  T      -0.37859792       0.06017656      -0.15821796       0.00883749       0.02198122       0.02194607      -3.80859351
H        2.18001151       4.27281088      22.83026127  T       0.46522120       0.10906373      -0.04889388      -0.03125913      -0.01532775       0.00175202      -3.80661154
