121
Lattice="11.32190990447998 -0.0 -6.999999919513338e-16 -3.700000002833815e-15 23.034778594970703 -5.66095495223999 -0.0 4.2000001634662394e-15 33.96573257446289" Properties=species:S:1:pos:R:3:move_mask:L:1:momenta:R:3:forces:R:3:energies:R:1 adsorbate_info="_JSON {\"site\": {\"coordinates\": [8.49143314, 2.90209508, 20.91413498], \"connectivity\": 1, \"topology\": [43], \"n_vector\": [-0.37471607227075104, 0.15892374259056014, 0.9134172700485745], \"h_vector\": [1.0, 0.0, 0.0], \"site_formula\": {\"W\": 1}}, \"smiles\": \"Cl\", \"mdf\": 1.7127647297895958, \"adsorbate_formula\": \"C2H6O\"}" bond_change_count=0 energy=-608.3404541015625 stress="0.0002072881761705503 -4.1715588849911e-06 -1.0206663318967912e-05 -4.1715588849911e-06 4.808164885616861e-05 -4.725669896288309e-06 -1.0206663318967912e-05 -4.725669896288309e-06 7.131871825549752e-05" free_energy=-608.3404541015625 pbc="T T F"
Cu       0.00353433      20.17854633      15.17716855  T      -0.63902438      -0.58501789       1.24860732       0.00308424      -0.00824140      -0.01575351      -3.90260506
Cu      -0.09269781       8.74004247      15.20108310  T      -0.50248375      -0.87408237       0.61425767      -0.01203074      -0.00034523       0.02352089      -4.21598959
Cu       2.83697052      20.17335537      12.40835877  T       0.24722418       0.51650038       1.95820957      -0.00719381       0.00717078       0.00206902      -4.18144608
Cu       2.70821362       8.91871706      18.05200008  T       0.31148625       0.32988849      -0.59351425      -0.00302005      -0.01368503       0.02672775      -4.21442842
Cu       2.60548009      13.50115450      17.64445634  T      -1.13560042      -2.19052958      -0.81303979      -0.03791346      -0.04166460       0.03304660      -3.44600606
Cu       2.99365597       2.83660333      18.19273887  T      -1.05396519       0.76389104       0.52772870      -0.00960398       0.02455900       0.04568431      -4.15652466
Cu       0.06539478      14.56212986      15.12410337  T      -0.01022048       0.32910733       1.17720250      -0.01573599      -0.04455741       0.02760712      -4.17833090
Cu       0.02571363       2.62249219      20.63091412  T      -0.00923737       0.18679378      -0.09691544      -0.06600034       0.00956326       0.04642214      -3.83334923
Cu       0.00000000      20.17817879       9.59222507  F       0.00000000       0.00000000       0.00000000       0.00052155      -0.00984871       0.15097508      -4.23008823
Cu       0.00000000       8.66078949       9.59222507  F       0.00000000       0.00000000       0.00000000      -0.00779808      -0.00432174       0.65111578      -2.35050106
Cu       2.83047748      20.17817879       6.76174784  F       0.00000000       0.00000000       0.00000000      -0.00693650      -0.00151432       0.62647778      -3.45321083
Cu       2.80231474       8.63843933      12.41242230  T      -0.41834075      -0.26556023       0.48176862      -0.00111589      -0.01384112       0.00121012      -4.23820639
Cu       2.91659266      14.53682942      12.31627966  T       0.55181746       1.04326881      -0.35252025       0.02685326       0.00829467      -0.00547603      -4.20235538
Cu       2.51687489       3.37395430      12.77256392  T      -2.65170051       2.65200120       1.93847751       0.00351781       0.01365070      -0.00521514      -3.69489622
Cu       0.00000000      14.41948509       9.59222507  F       0.00000000       0.00000000       0.00000000       0.01365632       0.28130242       0.13883974      -3.67813087
Cu       0.11722859       2.92876947      15.35978340  T       0.11759903      -0.31702573       0.54247108      -0.00260347       0.01957361       0.01232037      -4.21627522
Cu       5.67556157      20.14365730      15.18585807  T      -0.29593854      -1.48932172       1.93701347      -0.01649383       0.00324966      -0.01841478      -3.89623404
Cu       5.55831430       8.73703745      15.21160807  T       0.94636480       1.19721205      -0.43226748      -0.00510345       0.00545152      -0.00770935      -4.21966934
Cu       8.49322623      20.16761387      12.40963971  T       0.25068433      -0.41658968      -1.49639881      -0.00303167       0.00663256      -0.01914302      -4.19112396
Cu       8.37522813       8.92041326      18.04252189  T       0.45232933       0.77166958       0.15109331       0.00045350      -0.00938938       0.00804801      -4.21061611
Cu       8.25761450      13.51040704      17.64489000  T      -1.60150464      -1.39933837       0.18017694      -0.06677935      -0.04603676       0.04013734      -3.43456078
Cu       8.64085472       2.91662809      18.20336841  T      -0.75219392      -0.56892339       0.11123716       0.00065242      -0.01903477       0.01650976      -4.22873402
Cu       5.72076977      14.55813856      15.11842502  T       0.50775413      -1.33373714       0.77343710       0.00883713      -0.04071007       0.02326450      -4.17744923
Cu       5.56498661       2.92099111      20.98307485  T      -2.63812218      -0.54364959       0.01749381       0.01823538       0.01996583       0.01678075      -4.09000206
Cu       5.66095495      20.17817879       9.59222507  F       0.00000000       0.00000000       0.00000000       0.00866509       0.00162317       0.16123784      -4.23085928
Cu       5.66095495       8.66078949       9.59222507  F       0.00000000       0.00000000       0.00000000      -0.00728953      -0.00396140       0.65879148      -2.35408378
Cu       8.49143314      20.17817879       6.76174784  F       0.00000000       0.00000000       0.00000000      -0.00689019      -0.00066908       0.62758297      -3.45344639
Cu       8.46393159       8.63089518      12.41279553  T       1.70286022      -1.75796340       0.70862289      -0.01278554       0.01240954       0.00360624      -4.23661470
Cu       8.58138105      14.54329223      12.32074034  T      -1.05865299       0.22537028       0.15473486       0.03355255       0.00570600      -0.02837717      -4.19784737
Cu       8.18766975       3.38868528      12.77903434  T      -1.77850442       1.06484402       0.19702006      -0.00866635       0.01883707      -0.01660001      -3.69597673
Cu       5.66095495      14.41948509       9.59222507  F       0.00000000       0.00000000       0.00000000       0.01365569       0.28156596       0.13859469      -3.67793179
Cu       5.78120233       2.94388481      15.34120107  T       0.82649234      -1.04850246       1.30596831       0.00820394       0.01274317       0.01837757      -4.21960974
W        0.00413871      20.17423916      12.38115070  T       0.32777938       1.90870375      -0.22678384      -0.02902143      -0.02792724      -0.04704867     -11.70196915
W       -0.11319918       9.05130566      18.06068543  T       1.59155482      -0.30687370       1.49180286       0.03165506      -0.01299608      -0.06177244     -11.60048103
W        2.87586128      14.41554056      15.13609074  T       0.03217748       0.30361712       0.27747777       0.01349191      -0.00552541      -0.01213241     -11.74701023
W        2.73256924       2.69766005      20.78070903  T      -1.06076854      -4.69394810      -1.17181138       0.05010957      -0.02433254      -0.03214628      -9.87144089
W        0.00000000      20.17817879       6.76174784  F       0.00000000       0.00000000       0.00000000       0.03231669      -0.03567097       2.33071589      -7.39221382
W       -0.02284143       8.66831771      12.41573838  T      -0.90086573      -0.19017513       2.00577236      -0.01028055      -0.00094533      -0.00550485     -11.74012375
W        2.83047748      14.41948509       9.59222507  F       0.00000000       0.00000000       0.00000000       0.21878198       1.33570790       0.44366696      -9.73708534
W        2.94914458       2.94745011      15.38149049  T       0.88739584       1.13365052       0.19801959      -0.00180695       0.00246928      -0.00075270     -11.78243923
W        5.66773753      20.16614969      12.38243031  T      -0.57319611      -1.80870987      -0.47611712       0.05870921       0.04408262      -0.04481842     -11.70515442
W        5.54208557       9.05147610      18.04898158  T      -1.04244352      -0.69328975      -1.62484753       0.05099258      -0.03417891      -0.05905104     -11.60878563
W        8.53602151      14.42444457      15.13450371  T       0.63294176       2.13544679      -0.10365438       0.01363343      -0.00664365      -0.00242031     -11.74476337
W        8.68170316       2.77389306      20.90735546  T       6.51618890      -5.09640554      -2.27320095      -0.05064052       0.04825997       0.06644554      -9.72623634
W        5.66095495      20.17817879       6.76174784  F       0.00000000       0.00000000       0.00000000       0.03233647      -0.03581892       2.33180618      -7.39329720
W        5.63697032       8.66913836      12.41974797  T      -1.12286879       0.22938599       0.66574683      -0.00914627       0.00269086      -0.03783929     -11.73257160
W        8.49143314      14.41948509       9.59222507  F       0.00000000       0.00000000       0.00000000       0.22489899       1.34161448       0.45553732      -9.73521328
W        8.60534379       2.96057896      15.39733028  T       0.98072555      -1.02634313       1.82602576      -0.00121065       0.00986900      -0.01021457     -11.77524376
Se       3.71396471      19.43642649      16.51532458  T      -2.15133820       0.07505094      -1.62721216       0.00000296       0.00923904      -0.00773527      -3.22196054
Se       4.22321924       7.48888460      16.82430753  T       0.44750495       0.05781913      -1.35460781       0.03649558      -0.00815402       0.02427478      -4.34626770
Se       1.32326457      18.71718916      13.71861295  T      -1.21943282       0.17515447      -1.43655087      -0.02136973       0.02186359      -0.00444377      -4.37166262
Se       1.16886785       7.68577396      19.46332161  T       0.53348977       1.16634999      -2.01802851      -0.01280540       0.02865458      -0.01160224      -4.02778006
Se       1.59612806      15.52587377      16.81851057  T       0.41687552       0.50794729      -0.59074811      -0.01879527       0.00720426       0.00196189      -4.38216639
Se       1.59868744       4.33685532      16.75516357  T       1.35507395       1.33636123      -2.11179639      -0.00169336       0.02268753      -0.00870625      -4.30173683
Se       4.14489959      16.03198322      13.95758718  T      -0.85555763       0.43755676       2.06348636       0.04277983       0.01214932      -0.01184386      -4.33137989
Se       3.99575247       4.43126619      19.76147743  T      -1.48514551       0.05410048       0.74307563      -0.00643782       0.03307527      -0.01298355      -4.23075104
Se       2.08070644      11.80444122      19.16493698  T       1.54010402       2.43858886      -1.24545003       0.02508646      -0.01462246      -0.00538443      -3.26519227
Se       1.56223776       1.26169419      19.34436566  T       2.09197018       0.19304591       0.89801171       0.04099783      -0.01785352      -0.01437616      -4.42263699
Se       4.32780733      12.83776440      16.19157098  T      -0.44225106       2.04939430       1.23016222      -0.01428428      -0.00698825       0.02347148      -4.43337107
Se       4.15106505       1.28873025      22.01193958  T      -2.35399223       1.24539594      -2.18435053       0.01076323      -0.00790614       0.03916347      -3.95586228
Se       4.18701286      10.49222276      19.42048757  T       1.45348121      -0.51172220      -3.05797968      -0.03978679       0.05632195       0.01479562      -3.92414880
Se       4.36646877      21.60828588      13.74757585  T       1.25608618       0.34856004      -1.27671000       0.00928500      -0.01588011      -0.01973397      -4.37721968
Se       1.25016896      10.27469896      16.53941303  T      -0.45062816      -0.62022331       0.89155671       0.03399772       0.00884143      -0.00815811      -4.33515072
Se       1.94509511      20.86538908      16.53451610  T      -0.37868792      -2.25706348      -1.55083052       0.00077903      -0.00899428      -0.00546706      -3.24155688
Se       4.29427099      18.74556732      11.05601883  F       0.00000000       0.00000000       0.00000000       0.00570301       0.00428601       0.10157032      -4.34777308
Se       4.29427099       7.22817707      11.05601883  F       0.00000000       0.00000000       0.00000000       0.32192424       0.20818682      -0.31401080      -4.54356766
Se       1.36668432      18.74556732       8.12843227  F       0.00000000       0.00000000       0.00000000      -0.31726235       0.49303526      -1.68005669      -4.50942659
Se       1.29450145       7.25776712      13.78396307  T      -1.28469215      -0.33020026      -1.69408365      -0.01373330       0.02575365       0.02106605      -4.34754419
Se       1.46379328      15.85209751      10.95890999  F       0.00000000       0.00000000       0.00000000       0.57624537      -0.49762896      -0.99145162      -4.43341351
Se       1.46379328       4.33470774      10.95890999  F       0.00000000       0.00000000       0.00000000       0.01203355       0.08018140      -0.02493358      -1.94656706
Se       4.19716167      15.85209751       8.22554111  F       0.00000000       0.00000000       0.00000000      -0.68548405      -1.12629664       0.94095528      -4.04041529
Se       4.25717755       4.40366143      14.02833219  T       0.33388670      -1.29433349       0.60172786       0.01744636       0.00947464       0.01174256      -4.43043232
Se       1.47693310      13.12447858      13.70919001  T       0.91811157      -0.10029079       0.16916211       0.00278696      -0.03475994      -0.02389210      -4.31499720
Se       1.61401641       1.54243899      13.98624605  T       1.07801990       0.83450099       0.30560251      -0.01459325       0.00463933       0.01422963      -4.39684439
Se       4.19716167      12.98687172      10.95890999  F       0.00000000       0.00000000       0.00000000      -0.07766447       0.10866837      -0.57130390      -4.41363668
Se       4.32950956       1.46570336      16.63179869  T      -1.37592964       0.15909998      -0.47398647      -0.00825732      -0.01166069       0.00565848      -4.33629560
Se       4.26931372      10.13898823      13.68275457  T      -0.80369427      -0.89544313      -0.99707229       0.00035175      -0.01286504      -0.00897136      -4.33457375
Se       4.29427099      21.61079216       8.12843227  F       0.00000000       0.00000000       0.00000000       0.28502274      -0.44328380      -1.63136935      -4.50091076
Se       1.36668432      10.09340286      11.05601883  F       0.00000000       0.00000000       0.00000000      -0.34378964      -0.29715121      -0.34251657      -4.51198435
Se       1.36668432      21.61079216      11.05601883  F       0.00000000       0.00000000       0.00000000       0.02296311      -0.04845395       0.09574106      -4.34435701
Se       9.40024894      19.41434195      16.51873079  T       1.15170119       1.59053990       0.47657740       0.00592190       0.00050825      -0.01092837      -3.22878385
Se       9.90214737       7.49088820      16.82368123  T      -0.59261282       0.35558657       0.91965988      -0.00597938      -0.02180710       0.01252501      -4.34910822
Se       6.98817274      18.70328327      13.71398999  T      -0.86041095       0.99488499      -0.54234593      -0.03043224       0.01134373      -0.01831346      -4.37520313
Se       6.83088223       7.68505335      19.43998254  T      -2.85526464       1.40509065      -0.12196512      -0.01664372      -0.00399548       0.01428308      -4.00695801
Se       7.24825618      15.53904245      16.80808474  T       0.44715939       0.12066127      -1.09886867      -0.01339341      -0.02114356       0.00201630      -4.38317442
Se       7.24552628       4.35534669      16.75628620  T       0.26987873      -0.97408148       0.34574939       0.00092019       0.01453367       0.00827642      -4.31688738
Se       9.81625618      16.03853928      13.96369079  T       0.33129081      -1.04139521      -0.29742409       0.01922256      -0.00439141      -0.02026471      -4.33165455
Se       9.92108441       4.39489569      19.73881695  T       0.22285812      -0.41753308      -0.11925387       0.02868473      -0.00149362       0.01475248      -4.39435530
Se       7.73226126      11.79683150      19.15473624  T       0.16057816       3.41224960      -1.55454519      -0.00416619       0.05070587      -0.03180631      -3.27944207
Se       7.23385892       1.48144325      19.59388151  T       0.61967524      -0.68775348       1.56636647      -0.03377484      -0.01235573      -0.01621716      -4.38509369
Se       9.98296578      12.84999319      16.20191460  T      -0.95018402       1.67607142       0.35613611       0.00001506      -0.01720779       0.00749234      -4.43541241
Se      10.01236002       1.27346216      22.09506747  T      -0.50006026       0.77747556      -1.37430061       0.02719202       0.03899009       0.00031001      -4.19610834
Se       9.84772754      10.51760066      19.40394444  T       1.67160509      -1.77725852      -1.89536014       0.02178285      -0.00941598       0.03943770      -3.91399980
Se      10.00803321      21.62204006      13.72871753  T      -0.15909763      -0.16939198      -0.70216227       0.02693048      -0.01995087      -0.01325456      -4.38201857
Se       6.91344585      10.27731060      16.53392650  T       0.11713209      -0.42280170       1.18608168       0.00626637       0.00029138      -0.00272984      -4.33219433
Se       7.60887182      20.80803612      16.56637749  T       0.01671912      -0.85440011      -1.75794942      -0.02057887      -0.00798285       0.00339092      -3.23381519
Se       9.95522594      18.74556732      11.05601883  F       0.00000000       0.00000000       0.00000000       0.04494470       0.03116602       0.12284397      -4.34341192
Se       9.95522594       7.22817707      11.05601883  F       0.00000000       0.00000000       0.00000000       0.30132046       0.17526712      -0.34417686      -4.54485941
Se       7.02763939      18.74556732       8.12843227  F       0.00000000       0.00000000       0.00000000      -0.31714198       0.49328908      -1.68219090      -4.50941801
Se       6.95351303       7.26447455      13.79442870  T      -0.13514754       0.02540498      -0.94893373      -0.01035919       0.00712886       0.00684464      -4.34878254
Se       7.12474823      15.85209751      10.95890999  F       0.00000000       0.00000000       0.00000000       0.58381408      -0.50261211      -0.98950696      -4.43407917
Se       7.12474823       4.33470774      10.95890999  F       0.00000000       0.00000000       0.00000000       0.02766337       0.06846523      -0.00008900      -1.94684529
Se       9.85811710      15.85209751       8.22554111  F       0.00000000       0.00000000       0.00000000      -0.68775666      -1.12884259       0.93912196      -4.04104900
Se       9.92746671       4.40405443      14.04391037  T      -1.58190837      -0.70576402       0.32816041       0.01834848       0.01761271       0.01875114      -4.42944908
Se       7.14465230      13.12684632      13.70387846  T      -0.34887025       1.10265887       0.44135041       0.00590423      -0.01569456      -0.00063972      -4.31678343
Se       7.29150665       1.55102344      13.98780835  T       0.78298490       1.08269336       0.34739065      -0.03053508       0.00331149       0.02001488      -4.39413929
Se       9.85811710      12.98687172      10.95890999  F       0.00000000       0.00000000       0.00000000      -0.08519875       0.12397105      -0.56742883      -4.41401482
Se       9.96637870       1.48599935      16.67359056  T      -0.45725952      -0.18780356      -0.68846823      -0.01503868      -0.00407020       0.00074486      -4.33614635
Se       9.93159767      10.14131942      13.67483499  T       1.08441651       0.27004764      -1.18404199       0.00289739      -0.02123161       0.01594762      -4.33419466
Se       9.95522594      21.61079216       8.12843227  F       0.00000000       0.00000000       0.00000000       0.28192693      -0.44204181      -1.62942827      -4.50073195
Se       7.02763939      10.09340286      11.05601883  F       0.00000000       0.00000000       0.00000000      -0.36566946      -0.33081865      -0.31033173      -4.51053619
Se       7.02763939      21.61079216      11.05601883  F       0.00000000       0.00000000       0.00000000      -0.02693035      -0.07080317       0.16994548      -4.33139277
O        6.60640156       4.37177165      22.30992950  T      -5.35521679       6.33016776       2.95108616      -0.04784826       0.00148052       0.00234331      -6.08086872
C        6.89314774       4.00812973      23.69125583  T      -1.21469797       0.59606016       0.32686317      -0.02301136      -0.00670598      -0.07605720      -9.70429134
C        8.37920417       4.23262986      23.86994262  T       0.10280191       0.29976344      -0.39026734      -0.04167464      -0.01481543       0.00846967      -9.29189301
H        7.52742119       3.96792929      21.88307628  T      -0.59743167      -0.06354078       0.48956069       0.04861629      -0.00439114      -0.02951728      -3.27670121
H        6.26741412       4.65282216      24.32683543  T       0.00166684      -0.42873801       0.36973724       0.01618646      -0.06470548      -0.00718889      -3.53737473
H        6.59955010       2.95039032      23.79172090  T       0.13383495       0.05749582      -0.19162308      -0.00834193       0.05427420       0.02235877      -3.50187302
H        8.65671302       5.22978724      23.51273355  T       0.00018140       0.06883818      -0.34461518      -0.01235126      -0.03397429       0.00039010      -3.58111858
H        8.95701961       3.46991678      23.30090260  T      -0.00871644      -0.02216557       0.00527398      -0.04499134      -0.00145610      -0.00216427      -3.84275556
H        8.65557764       4.12889957      24.92390949  T       0.09903218       0.19541645      -0.00491578       0.03683512       0.01267173       0.02955356      -3.62073445
