57
Lattice="9.379960060119629 0.0 6.000000233523199e-16 1.4999999525016814e-15 9.379960060119629 6.000000233523199e-16 0.0 0.0 31.26653480529785" Properties=species:S:1:pos:R:3:move_mask:L:1:momenta:R:3:forces:R:3:energies:R:1 adsorbate_info="_JSON {\"site\": {\"coordinates\": [1.9541583950000003, 1.9541583950000003, 19.15075254], \"connectivity\": 4, \"topology\": [2, 32, 38, 41], \"n_vector\": [-0.2139652358349997, -0.2139652358349997, 0.9531200111781023], \"h_vector\": [1.0, 0.0, 0.0], \"site_formula\": {\"Ti\": 1, \"Re\": 3}}, \"smiles\": \"S1S\", \"mdf\": 1.308188452345395, \"adsorbate_formula\": \"H2N\"}" bond_change_count=0 energy=-555.3538818359375 stress="0.0008523041615262628 -3.52651028379114e-07 4.2798549770850514e-07 -3.52651028379114e-07 0.000865906709805131 2.0213783500366844e-05 4.2798549770850514e-07 2.0213783500366844e-05 9.546954242978245e-05" free_energy=-555.3538818359375 pbc="T T F"
Ti       1.56332672       1.56332672      11.72495079  F       0.00000000       0.00000000       0.00000000      -0.00087163       0.00588260       0.37084225      -8.30237961
Ti       1.56486020       1.57327605      14.81987352  T       1.03773396       0.30298917       0.84252426      -0.01564309      -0.00168836      -0.01677087      -9.52474785
Ti       1.56619735       1.56072838      17.98496354  T      -0.57610417       0.28518615       0.94806065       0.01639896       0.01873274       0.02467138      -9.47129154
Ti       1.56332672       4.68998003      11.72495079  F       0.00000000       0.00000000       0.00000000      -0.00174980      -0.00552073       0.37880436      -8.30542183
Ti       1.56232407       4.68992433      14.80831071  T      -0.24077242      -1.49549313      -0.88968249      -0.00414441      -0.00522356      -0.00986133      -9.52694893
Ti       1.56798507       4.67551102      18.21486653  T      -0.55025647       0.13550000       2.05369232       0.00361508       0.01060402      -0.00403261      -9.61028194
Ti       1.56332672       7.81663370      11.72495079  F       0.00000000       0.00000000       0.00000000      -0.00004245       0.00502975       0.36648440      -8.30923557
Ti       1.56327973       7.82427443      14.80121463  T      -0.41570198       0.34630476      -1.32164369       0.00042044       0.00519049      -0.00276263      -9.52183533
Ti       1.57356778       7.86519218      18.20810496  T       1.29191581       0.71469381       1.70663161      -0.02073602      -0.02068830      -0.01509476      -9.62337112
Ti       4.68998003       1.56332672      11.72495079  F       0.00000000       0.00000000       0.00000000      -0.00692358       0.00535932       0.35056466      -8.31783104
Ti       4.68256099       1.57455678      14.78435639  T       0.85608092      -0.74635484      -0.86122120      -0.01450782      -0.00810579       0.00446445      -9.52807522
Ti       4.71999785       1.58379340      18.10141833  T      -0.21109491       0.01799146       1.48758177      -0.01691934      -0.00154964       0.01753697      -9.64123535
Ti       4.68998003       4.68998003      11.72495079  F       0.00000000       0.00000000       0.00000000      -0.00982181      -0.00317215       0.34332108      -8.31879425
Ti       4.67769615       4.69394782      14.78267590  T       0.17968190       0.42154234       0.02124473      -0.02104815      -0.00616034       0.00302314      -9.52397346
Ti       4.73668271       4.75784953      18.08626895  T      -0.21450733      -0.69793032       2.25072731      -0.00229058      -0.00953940      -0.01199949      -9.62902737
Ti       4.68998003       7.81663370      11.72495079  F       0.00000000       0.00000000       0.00000000      -0.01189681       0.00508760       0.33820215      -8.31992149
Ti       4.67614127       7.82477696      14.77988378  T       0.15558099       0.78507385      -0.58542970      -0.01989586       0.01390740       0.00407638      -9.52165413
Ti       4.72431037       7.81819893      18.11538650  T       1.25626103       1.02801820       1.88494172      -0.00679795      -0.00420046      -0.00779873      -9.63189030
Ti       7.81663370       1.56332672      11.72495079  F       0.00000000       0.00000000       0.00000000       0.01131782       0.00418365       0.35657007      -8.31501770
Ti       7.83490060       1.57281980      14.78970869  T      -0.54286352       0.62330260      -0.06371108      -0.00038139       0.00563297      -0.00478374      -9.52878571
Ti       7.78656248       1.58355225      18.11633632  T      -0.96809565      -0.73562508       0.53246115       0.01071411      -0.01820605      -0.00205737      -9.64082146
Ti       7.81663370       4.68998003      11.72495079  F       0.00000000       0.00000000       0.00000000       0.01299727      -0.00107055       0.34971496      -8.31587982
Ti       7.83460284       4.69962220      14.78822157  T      -0.16505336       1.23848736      -1.63863837       0.01944986      -0.02785197      -0.00739408      -9.52497387
Ti       7.76724972       4.76288030      18.10148431  T      -0.98059950      -0.06808364       2.21701606       0.01156157      -0.01031052      -0.03677639      -9.62841511
Ti       7.81663370       7.81663370      11.72495079  F       0.00000000       0.00000000       0.00000000       0.01378948       0.00607094       0.34003484      -8.31889248
Ti       7.83688933       7.82763108      14.78218933  T      -0.59836764       0.45994114      -0.47423997       0.00685663      -0.00211073       0.00735561      -9.51952839
Ti       7.77579799       7.81827357      18.12551315  T      -0.53977622      -0.26845735       1.18819762       0.02402964      -0.00282392      -0.01066279      -9.63448238
Re       0.00000000       0.00000000      13.28827763  F       0.00000000       0.00000000       0.00000000       0.06038518       0.05393375      -0.36003181     -11.35371304
Re       0.00195777      -0.00058796      16.37338540  T       1.00507430      -0.86786856      -2.17232147      -0.00822166      -0.00312989       0.02504403     -11.90456104
Re       0.02285356       0.10692944      19.50080589  T       0.06872270      -1.34806619      -0.93331790      -0.04253963      -0.04260616      -0.05293459      -9.05602646
Re       0.00000000       3.12665343      13.28827763  F       0.00000000       0.00000000       0.00000000       0.05544171       0.01414169      -0.35244045     -11.35422897
Re      -0.00020791       3.15266254      16.39530072  T      -1.31008298      -0.04721302      -1.58706135      -0.00141739      -0.00194011       0.00320613     -11.90911770
Re      -0.02697947       3.10277754      19.48291631  T       1.39694082      -0.67249699       2.52860721      -0.02746999       0.03629439      -0.00609815      -9.11434937
Re       0.00000000       6.25330687      13.28827763  F       0.00000000       0.00000000       0.00000000       0.06576914      -0.00275240      -0.36844051     -11.35256386
Re       0.03268553       6.27383467      16.36358685  T      -3.63396928      -2.31866817       0.67660243      -0.01485884      -0.00403098      -0.01703595     -11.90594196
Re      -0.05637160       6.27722203      19.51690651  T       1.77648586      -0.29757452       0.45736997       0.00183903       0.01012715       0.00958782      -8.68383121
Re       3.12665343       0.00000000      13.28827763  F       0.00000000       0.00000000       0.00000000      -0.05415604       0.04979603      -0.35091585     -11.35624886
Re       3.12864839       0.00380016      16.36042356  T      -0.79442763      -1.46641317      -3.13194222       0.00420401      -0.01200722       0.03700883     -11.89917564
Re       3.11414632       0.11278311      19.50364481  T       0.14551860      -0.85235155      -3.47868538       0.02028172      -0.01116180      -0.02818280      -9.08179951
Re       3.12665343       3.12665343      13.28827763  F       0.00000000       0.00000000       0.00000000      -0.05991717       0.01219558      -0.35116941     -11.35469818
Re       3.12749690       3.14897266      16.38222409  T       1.25904437      -0.61651503       1.46849283      -0.00083551       0.00403979       0.00897934     -11.90240097
Re       3.16391823       3.10816198      19.49142814  T      -1.28395325      -1.96510794       2.95479978      -0.01915374      -0.02060422      -0.01046592      -9.13713932
Re       3.12665343       6.25330687      13.28827763  F       0.00000000       0.00000000       0.00000000      -0.06533463      -0.00326781      -0.36109254     -11.35484219
Re       3.09634168       6.26854368      16.35331153  T      -1.51629615      -2.12344358      -0.01142728       0.01365789       0.00972220      -0.01624103     -11.89997387
Re       3.19344476       6.26911241      19.52238039  T       3.14964189      -1.62184313       0.10096868       0.00186364       0.01545342       0.00478840      -8.69524479
Re       6.25330687       0.00000000      13.28827763  F       0.00000000       0.00000000       0.00000000       0.01335040       0.04837536      -0.32379091     -11.36478138
Re       6.25916448       0.00828178      16.29868930  T      -0.59755623       0.18533411      -2.16303027      -0.01112953      -0.00570726       0.01470423     -11.87678242
Re       6.24442217      -0.02679097      19.52951595  T       0.55703599       0.21577962      -1.21876984       0.01194390       0.00761675      -0.02124757      -8.74791908
Re       6.25330687       3.12665343      13.28827763  F       0.00000000       0.00000000       0.00000000       0.02214014       0.01337850      -0.31522316     -11.36462879
Re       6.26139633       3.14373970      16.30856727  T       0.87648489      -1.82186246      -0.82498845      -0.01098304       0.00195678      -0.00786991     -11.87749672
Re       6.25318670       3.22777466      19.51135213  T       1.39642794      -2.22630766       0.47718385      -0.00397273      -0.03909432      -0.00507414      -8.81602097
Re       6.25330687       6.25330687      13.28827763  F       0.00000000       0.00000000       0.00000000       0.01253004       0.00745235      -0.31197456     -11.36591721
Re       6.25414244       6.28308045      16.28425095  T      -2.83738138      -2.41412367      -0.77005834       0.00596044      -0.01925949      -0.01296081     -11.84998512
Re       6.24991415       6.29548219      19.55876293  T       0.65428614      -1.27097845       0.23836783      -0.00605278      -0.00592667       0.00608361      -8.98686123
N        1.56454794       1.66074209      20.12994997  T      -0.81175759       2.56904619      -2.12632767       0.01864366      -0.03964135      -0.00549829     -10.42477036
H        1.55376649       0.87167464      20.83019896  T      -0.46394587      -0.45276549      -0.70857240       0.01661000       0.01379746       0.01349390      -4.14504337
H        1.55576570       2.47920668      20.80333154  T      -0.52099866       0.43505574      -0.82133956       0.02394152      -0.04461068       0.03011984      -4.16319561
