57
Lattice="9.379960060119629 0.0 6.000000233523199e-16 1.4999999525016814e-15 9.379960060119629 6.000000233523199e-16 0.0 0.0 31.26653480529785" Properties=species:S:1:pos:R:3:move_mask:L:1:momenta:R:3:forces:R:3:energies:R:1 adsorbate_info="_JSON {\"site\": {\"coordinates\": [0.0, 6.25330687, 19.54158401], \"connectivity\": 1, \"topology\": [35], \"n_vector\": [0.13663185740852254, 0.13260790736041575, 0.9817061059434176], \"h_vector\": [1.0, 0.0, 0.0], \"site_formula\": {\"Re\": 1}}, \"smiles\": \"Cl\", \"mdf\": 1.7392287020680963, \"adsorbate_formula\": \"H2N\"}" bond_change_count=0 energy=-560.0488891601562 stress="0.00046718609519302845 3.606309473980218e-05 4.287193587515503e-05 3.606309473980218e-05 0.0003934058186132461 -5.906366368435556e-06 4.287193587515503e-05 -5.906366368435556e-06 8.03784787422046e-05" free_energy=-560.0488891601562 pbc="T T F"
Ti       1.56332672       1.56332672      11.72495079  F       0.00000000       0.00000000       0.00000000      -0.01462507      -0.02038711       0.29656345      -8.31267357
Ti       1.54864014       1.47121483      14.77315353  T      -0.77718787       0.90007045       0.19154874       0.00107297      -0.00470780      -0.02336045      -9.51838398
Ti       1.86870066       1.71342355      17.97769218  T       0.03171689      -2.00704228       1.49093344      -0.01308483      -0.00094718      -0.04482482      -9.25063419
Ti       1.56332672       4.68998003      11.72495079  F       0.00000000       0.00000000       0.00000000      -0.03308147       0.01520929       0.33473766      -8.30672073
Ti       1.53312650       4.79057720      14.78130791  T       1.31191901       0.29841952      -0.48192198      -0.01078216       0.02242638      -0.05231990      -9.50897694
Ti       1.55055156       4.53936993      17.78329483  T       0.45767419       0.13741622       1.83592694      -0.04876529       0.03602231      -0.00451887      -9.59531784
Ti       1.56332672       7.81663370      11.72495079  F       0.00000000       0.00000000       0.00000000       0.02595260       0.00762968       0.37527120      -8.26767254
Ti       1.58903299       7.83282390      14.85210857  T      -0.27969764      -0.38881654      -0.41995154      -0.06924093       0.02889673      -0.04370873      -9.52189636
Ti       1.95588465       8.12626320      18.48949497  T       0.43846412      -0.57538328       1.20063543      -0.01140389      -0.07175730       0.01367739      -9.25998783
Ti       4.68998003       1.56332672      11.72495079  F       0.00000000       0.00000000       0.00000000       0.01551833      -0.02531857       0.26586464      -8.32492161
Ti       4.71896724       1.49995263      14.75685372  T      -0.86021102      -0.26411760      -0.44074105      -0.00577133       0.00734335      -0.00791567      -9.52516460
Ti       4.77406472       1.55596567      18.15978222  T      -0.00317344      -0.21952399       2.38776802      -0.04932429       0.01920825      -0.03382003      -8.96129894
Ti       4.68998003       4.68998003      11.72495079  F       0.00000000       0.00000000       0.00000000       0.00895066       0.00967140       0.25042003      -8.32828903
Ti       4.71786279       4.76918477      14.73336791  T       1.01721903      -0.16715442      -0.85424203      -0.01786872      -0.03247815      -0.00079691      -9.44041252
Ti       4.71234445       4.44308793      17.56891599  T      -0.69126190       0.74186882       0.84194346       0.00953274      -0.03358090       0.01538536      -9.50172710
Ti       4.68998003       7.81663370      11.72495079  F       0.00000000       0.00000000       0.00000000       0.00493810      -0.00633417       0.33818531      -8.28574562
Ti       4.71874640       7.78258821      14.82774115  T       0.97145861      -0.11046895      -1.55299455      -0.02800294      -0.02654402      -0.01373697      -9.54761314
Ti       4.74822793       8.00315168      18.37792512  T      -0.01887119       0.51885277       2.07986366       0.01245181       0.00731170      -0.01345380      -8.73720169
Ti       7.81663370       1.56332672      11.72495079  F       0.00000000       0.00000000       0.00000000       0.01643166      -0.03185477       0.31862038      -8.30185318
Ti       7.86687719       1.44803733      14.79504561  T      -0.15592016       0.97167124      -0.11704880      -0.01419796       0.06413980      -0.02379066      -9.50426674
Ti       7.65565755       1.62499036      17.97702314  T       0.23879439      -0.59263894       2.49183701      -0.05848268       0.01499750       0.01458389      -9.24243164
Ti       7.81663370       4.68998003      11.72495079  F       0.00000000       0.00000000       0.00000000       0.02877399       0.01137472       0.32306528      -8.30844975
Ti       7.85238033       4.79281390      14.77455772  T       0.40939058       0.32588242      -1.70748794      -0.00132924      -0.03733124       0.01774099      -9.47297096
Ti       7.88087598       4.69255515      17.71007368  T       0.38275146       0.62216289       1.62012308       0.03313580      -0.00482933       0.02558145      -9.40092564
Ti       7.81663370       7.81663370      11.72495079  F       0.00000000       0.00000000       0.00000000      -0.00208907       0.01638105       0.38741130      -8.25720024
Ti       7.84895310       7.83186059      14.87356896  T      -0.33574896       0.43434785      -0.86390256       0.06280840      -0.02727458      -0.02877124      -9.53177547
Ti       7.70410580       7.96335849      18.47175081  T       0.27652853       0.80591885       1.73873726      -0.02247155      -0.04657681      -0.00727694      -9.25812149
Re       0.00000000       0.00000000      13.28827763  F       0.00000000       0.00000000       0.00000000       0.03562931      -0.35273856      -0.50136560     -11.30672455
Re       0.05965317      -0.05442800      16.68834885  T      -0.28282554      -1.37821568      -0.84095924       0.00650056      -0.04484912       0.05873045     -12.11049557
Re       0.15936257       0.29336661      19.17746396  T       1.70552211      -1.03982372       0.30074803      -0.03683503      -0.04668003       0.03843468      -9.79894161
Re       0.00000000       3.12665343      13.28827763  F       0.00000000       0.00000000       0.00000000      -0.00507398       0.09957542      -0.11298325     -11.41036606
Re       0.03350344       3.01744443      16.28365962  T       0.37172891      -1.53601657      -0.04482955      -0.06810256       0.01429064      -0.06964302     -11.74059200
Re      -0.48599431       3.23352076      19.72414110  T      -0.65299631       0.06710175      -1.09622116      -0.03826106       0.06348503       0.01519406     -10.80592823
Re       0.00000000       6.25330687      13.28827763  F       0.00000000       0.00000000       0.00000000       0.01826100       0.26707420      -0.29816547     -11.33098125
Re       0.08201438       6.53432742      16.65326344  T      -0.22850789      -0.93982063      -2.85386208      -0.00228110      -0.00188777      -0.01339167     -11.97741604
Re       0.15689943       6.38444428      19.23190719  T       1.73901567      -0.33711926      -5.42290243      -0.04431835      -0.00316727      -0.03931361     -10.72619629
Re       3.12665343       0.00000000      13.28827763  F       0.00000000       0.00000000       0.00000000      -0.03494528      -0.26676345      -0.40893817     -11.34110737
Re       3.29921510      -0.01415155      16.43824370  T      -0.49355938       0.45176324      -2.32337461      -0.02314646      -0.02543276       0.06292002     -11.66861629
Re       1.50155473       2.07611779      20.55294087  T      -1.10030595       1.83851651      -0.33494679       0.01514676       0.01408178      -0.01604536      -9.17257690
Re       3.12665343       3.12665343      13.28827763  F       0.00000000       0.00000000       0.00000000      -0.09854272       0.12154911      -0.17109434     -11.42856884
Re       3.12273036       3.05137838      16.11727244  T       0.97880500       0.19052635      -0.86559308      -0.00643030      -0.04723752       0.04584333     -11.68061829
Re       1.54129541       4.54663131      20.58538325  T       0.02727282       0.65252415      -0.82840869      -0.00519279       0.00830585      -0.03388075      -9.24048710
Re       3.12665343       6.25330687      13.28827763  F       0.00000000       0.00000000       0.00000000      -0.09222825       0.15022063      -0.32091999     -11.33908081
Re       3.13535330       6.42359124      16.60220037  T       0.61916052       1.45328884      -0.25733435      -0.04464018       0.07399960       0.01668444     -12.01653099
Re       3.25403195       5.97149312      19.11212632  T       0.27165722      -3.76994497       0.17033487       0.06440752       0.00412768      -0.03354335     -10.35340118
Re       6.25330687       0.00000000      13.28827763  F       0.00000000       0.00000000       0.00000000       0.21102905      -0.28988600      -0.45575964     -11.33742809
Re       6.19532794      -0.03820349      16.48960462  T       1.13884463       1.39652267      -2.74540223       0.03112517      -0.02876973      -0.04309226     -11.65108490
Re       3.64803967       3.33636656      19.78640184  T       0.34464559      -0.54272227      -0.16492173      -0.07390488      -0.01636779      -0.01197678     -10.42543411
Re       6.25330687       3.12665343      13.28827763  F       0.00000000       0.00000000       0.00000000       0.23168658       0.08268644      -0.16149805     -11.42262173
Re       6.32847797       3.01478268      16.15541594  T      -0.84136223       2.54143405       0.71221391       0.01725355      -0.00236498       0.04862928     -11.70963478
Re       6.21953364       3.45134395      19.58246637  T      -0.37496630      -0.02253138      -1.18928582      -0.02209419      -0.00982785       0.00613824      -9.26338863
Re       6.25330687       6.25330687      13.28827763  F       0.00000000       0.00000000       0.00000000       0.23529908       0.19998483      -0.34367776     -11.33521461
Re       6.28456770       6.47174984      16.62986934  T       0.95686052      -1.13046810      -0.83938731      -0.06799420       0.04871701      -0.00443336     -11.91772652
Re       6.23181993       5.97760076      19.22257258  T       2.08254958       2.85199824      -2.29623568       0.01332310       0.06149036       0.04624373     -10.06180000
N       -1.57301070       6.72417240      20.36672786  T      -2.50704489       1.26677481       2.23853369       0.01303031       0.02461523       0.01312822     -10.40105438
H       -1.53970913       6.16052090      21.22822908  T      -0.01193428       0.33919651      -0.03745885      -0.00858617       0.00766485       0.02538246      -3.77962279
H       -1.62768313       7.71091975      20.68442109  T      -0.44157033       0.46445314      -0.27859783      -0.03915983       0.00341357      -0.01641954      -3.82268143
