57
Lattice="9.379960060119629 0.0 6.000000233523199e-16 1.4999999525016814e-15 9.379960060119629 6.000000233523199e-16 0.0 0.0 31.26653480529785" Properties=species:S:1:pos:R:3:move_mask:L:1:momenta:R:3:forces:R:3:energies:R:1 adsorbate_info="_JSON {\"site\": {\"coordinates\": [8.858851273413086, 1.5633267166666667, 19.020475383333338], \"connectivity\": 3, \"topology\": [20, 29, 32], \"n_vector\": [-0.6812669876681114, 0.04498665593893457, 0.7306514164093909], \"h_vector\": [-0.5773502852224496, -0.5773504144363726, -0.5773501079100141], \"site_formula\": {\"Ti\": 1, \"Re\": 2}}, \"smiles\": \"S1S\", \"mdf\": 1.66063328499155, \"adsorbate_formula\": \"H2N\"}" bond_change_count=0 energy=-555.3776245117188 stress="0.0008674177806824446 2.3859327484387904e-05 3.928819296561414e-06 2.3859327484387904e-05 0.0008644324843771756 -1.3292242329043802e-05 3.928819296561414e-06 -1.3292242329043802e-05 0.00010930372081929818" free_energy=-555.3776245117188 pbc="T T F"
Ti       1.56332672       1.56332672      11.72495079  F       0.00000000       0.00000000       0.00000000      -0.00433948      -0.00080768       0.37444291      -8.31073856
Ti       1.55690060       1.56044924      14.80022612  T      -0.36070495       0.14455313      -0.04255922      -0.00231180       0.00081899      -0.00998042      -9.52913857
Ti       1.58199953       1.55012828      18.14525177  T       0.54416185      -0.42417621       1.74851061      -0.01929258      -0.00316074       0.00737470      -9.63908482
Ti       1.56332672       4.68998003      11.72495079  F       0.00000000       0.00000000       0.00000000      -0.00618444      -0.00864588       0.35491484      -8.31632805
Ti       1.55523056       4.67365623      14.78793574  T      -0.10409910       0.12897672      -0.09109057      -0.00628245      -0.00914111      -0.00683066      -9.51847076
Ti       1.58636536       4.68523522      18.20120554  T       0.65367012       0.01355743       1.58855553       0.01481365       0.03171834      -0.04309487      -9.62757301
Ti       1.56332672       7.81663370      11.72495079  F       0.00000000       0.00000000       0.00000000      -0.00315889       0.00325741       0.35565838      -8.31741619
Ti       1.55931239       7.81721110      14.78774749  T      -0.94858344       0.10879752      -0.90261372      -0.01464909       0.01095715      -0.01562378      -9.52364063
Ti       1.62548042       7.74547569      18.08083883  T       2.13947166      -1.42326981       1.40589169      -0.01342574       0.01763974      -0.01237670      -9.63719082
Ti       4.68998003       1.56332672      11.72495079  F       0.00000000       0.00000000       0.00000000       0.00660934      -0.00369957       0.37708968      -8.31055927
Ti       4.70243715       1.55946852      14.80097495  T       0.02874379      -1.44040511       0.48590670      -0.00506942       0.01266479      -0.01336257      -9.53060627
Ti       4.69725344       1.53999896      18.14774438  T       0.87344343       1.27520679       1.94934480      -0.00377563       0.00606995      -0.01440531      -9.63351250
Ti       4.68998003       4.68998003      11.72495079  F       0.00000000       0.00000000       0.00000000       0.00659630      -0.00620477       0.35225397      -8.31697464
Ti       4.70180669       4.67588457      14.78763598  T      -0.25140411      -0.48461624      -0.62169466      -0.00239397      -0.00414384      -0.00363977      -9.52070999
Ti       4.64375756       4.72584746      18.11008230  T      -1.11440153       0.41472141       2.33671499       0.00608847      -0.00376639      -0.01770124      -9.63581276
Ti       4.68998003       7.81663370      11.72495079  F       0.00000000       0.00000000       0.00000000       0.00739669       0.00577263       0.36309654      -8.31561375
Ti       4.70272451       7.82104415      14.79161330  T       0.46301545       1.08844281      -1.05511330      -0.00163230      -0.00345338      -0.03028040      -9.52638054
Ti       4.66729513       7.76010315      18.13210984  T      -0.20577315      -0.60670844       1.76113847      -0.00880176       0.02980787      -0.01715666      -9.62139702
Ti       7.81663370       1.56332672      11.72495079  F       0.00000000       0.00000000       0.00000000       0.00034219      -0.00238584       0.37542433      -8.30497837
Ti       7.81867906       1.56228042      14.81435463  T       0.67394671       0.54771444      -0.82570807       0.00120113      -0.00297390       0.00651177      -9.53001213
Ti       7.82249012       1.55967312      17.98958416  T      -0.77067492      -0.14523133       0.29368802       0.01481772      -0.01312201      -0.00079542      -9.47707558
Ti       7.81663370       4.68998003      11.72495079  F       0.00000000       0.00000000       0.00000000       0.00110179      -0.00512932       0.37396502      -8.31006718
Ti       7.81887761       4.67848811      14.80167140  T      -0.20695864       0.25051929       0.03791365       0.00058630      -0.00896531      -0.01241483      -9.52630043
Ti       7.83166395       4.68108798      18.17715427  T      -0.18762084      -0.89898531       0.99302571      -0.00832161       0.01417627      -0.03215662      -9.63797379
Ti       7.81663370       7.81663370      11.72495079  F       0.00000000       0.00000000       0.00000000      -0.00024386       0.00491267       0.37702349      -8.31082535
Ti       7.82031976       7.82171446      14.80052727  T       0.13715551       0.36666149      -0.02630468       0.00529215      -0.00483204      -0.01629947      -9.53132725
Ti       7.82112864       7.79569602      18.13157741  T       0.17412819       1.14416336       2.05415052      -0.00072664       0.03167001       0.01073980      -9.63478565
Re       0.00000000       0.00000000      13.28827763  F       0.00000000       0.00000000       0.00000000      -0.03169730       0.02193188      -0.31709561     -11.35843658
Re       0.01290267      -0.01087789      16.37173852  T      -1.64091843       0.48679271       0.51112086      -0.00316997      -0.00226627       0.00322557     -11.88856220
Re       0.02387916      -0.03265740      19.48542953  T      -0.02423460      -1.92207411      -1.54986528       0.04612152      -0.05326089      -0.06834996      -9.19665909
Re       0.00000000       3.12665343      13.28827763  F       0.00000000       0.00000000       0.00000000      -0.03675906      -0.05600548      -0.35971886     -11.35292053
Re       0.02023370       3.14151403      16.39454180  T       0.23831497       2.86167093      -0.74783930      -0.00357993      -0.01450750      -0.00084031     -11.90428257
Re      -0.12619497       2.95776394      19.51084331  T      -0.18513876      -0.38951017      -1.82776614       0.02591981       0.00192471       0.00868589      -9.04592419
Re       0.00000000       6.25330687      13.28827763  F       0.00000000       0.00000000       0.00000000      -0.04181045      -0.00464251      -0.33505845     -11.35971165
Re       0.00736640       6.21574843      16.33578277  T      -0.88744192      -1.04813270       2.53365807      -0.01144872       0.01681830      -0.00496542     -11.88949680
Re       0.05293743       6.28694831      19.53113401  T      -0.80690894      -1.34447526      -0.46372367      -0.02285637      -0.01772575       0.01048145      -8.70516205
Re       3.12665343       0.00000000      13.28827763  F       0.00000000       0.00000000       0.00000000       0.01255627       0.02879029      -0.31817615     -11.36252308
Re       3.14162891      -0.00253122      16.33179667  T      -1.17103628       2.56129923      -1.55812832      -0.01267009      -0.00330429      -0.01771182     -11.88721848
Re       3.13407568      -0.07334612      19.51385631  T      -0.48459668      -0.45500668      -0.01420966      -0.00387308       0.02171613       0.01808590      -8.75796890
Re       3.12665343       3.12665343      13.28827763  F       0.00000000       0.00000000       0.00000000       0.01178857      -0.06566689      -0.33694670     -11.35951614
Re       3.11460269       3.12116936      16.33760064  T      -2.33261464       3.80281857      -2.08527276       0.00889879       0.00248693      -0.00806540     -11.89037418
Re       3.16055730       3.13581770      19.53317602  T       1.38137776      -1.06131915       0.20022139      -0.01506068       0.00396478      -0.00390816      -8.69327831
Re       3.12665343       6.25330687      13.28827763  F       0.00000000       0.00000000       0.00000000       0.01479415      -0.00639827      -0.31419283     -11.36633587
Re       3.12522577       6.22720963      16.29430237  T       0.05680174       0.65510849      -0.12806175      -0.00049880       0.00585615      -0.01161088     -11.85739803
Re       3.11900454       6.23049934      19.57110232  T      -0.65245206       1.55018133      -0.99523604       0.02705209       0.02255189      -0.00438595      -8.92945290
Re       6.25330687       0.00000000      13.28827763  F       0.00000000       0.00000000       0.00000000       0.04335407       0.02238554      -0.33587655     -11.35649967
Re       6.24143617      -0.02399224      16.38895864  T      -1.25774035       1.43950103       2.96040304       0.01528482       0.01534725      -0.01057666     -11.89610863
Re       6.33905919       0.05526644      19.49886369  T       1.61156157       4.11612596       1.19888815      -0.00294033      -0.01723759      -0.02276826      -9.19382095
Re       6.25330687       3.12665343      13.28827763  F       0.00000000       0.00000000       0.00000000       0.04332314      -0.05555099      -0.33380932     -11.35516453
Re       6.25318372       3.13261167      16.37616903  T       2.68272211      -0.46292798      -1.87774399      -0.00801910       0.00013249       0.01414754     -11.89463902
Re       6.24918278       3.11993186      19.49397119  T      -0.38952098      -1.48212535      -0.22868974      -0.05007932       0.03611228      -0.04005939      -9.14314651
Re       6.25330687       6.25330687      13.28827763  F       0.00000000       0.00000000       0.00000000       0.04965237      -0.00069896      -0.32780391     -11.36074638
Re       6.26604195       6.24665891      16.33518274  T       0.30041907      -3.00562908      -2.45098208      -0.01528291      -0.02113038      -0.01186500     -11.88969803
Re       6.22258358       6.24637125      19.52136106  T      -0.84108138       0.76369319      -1.44182721      -0.01566098      -0.01284258       0.01180857      -8.73281193
N        7.79658147       1.50720168      20.18480343  T      -3.04675622       1.44860271       1.91840670       0.02328245       0.01227464      -0.03237402     -10.41807747
H        8.32099643       0.92642678      20.89657035  T      -0.00379301      -0.91303049      -0.51015153      -0.01457053       0.02363738       0.02723807      -4.11923790
H        7.19546824       2.00055631      20.89938070  T      -0.52531481      -0.40149366      -0.54149674       0.00371359       0.00627402       0.04011017      -4.11806345
