77
Lattice="11.60444164276123 0.0 6.999999919513338e-16 -2.799999967805335e-15 9.899094581604004 3.73103928565979 0.0 0.0 33.57935333251953" Properties=species:S:1:pos:R:3:move_mask:L:1:momenta:R:3:forces:R:3:energies:R:1 adsorbate_info="_JSON {\"site\": {\"coordinates\": [5.80222082, 3.56009269, 23.31899452], \"connectivity\": 1, \"topology\": [10], \"n_vector\": [-0.1277492053821044, -0.14775258265712496, 0.9807391675886052], \"h_vector\": [1.0, 0.0, 0.0], \"site_formula\": {\"Hf\": 1}}, \"smiles\": \"Cl\", \"mdf\": 1.7392171104391174, \"adsorbate_formula\": \"H3NO\"}" bond_change_count=0 energy=-547.61328125 stress="0.0002203479380114004 4.743946647067787e-06 -6.6411762418283615e-06 4.743946647067787e-06 0.0002558609703555703 6.668862624792382e-05 -6.6411762418283615e-06 6.668862624792382e-05 6.444350583478808e-05" free_energy=-547.61328125 pbc="T T F"
Hf       1.93407357       3.56009269      15.85691643  F       0.00000000       0.00000000       0.00000000      -0.01775021       0.07219714       0.40717879     -10.29825401
Hf      -0.00000000       8.50963974      15.85691643  F       0.00000000       0.00000000       0.00000000      -0.00712238       0.33372754      -0.01638222      -9.61615372
Hf       1.91696365       3.60730763      19.54435763  T       1.33667671      -1.13886240      -1.81182990       0.03380603      -0.00861168      -0.01100104     -10.38848209
Hf      -0.00167979       8.58133717      19.52926893  T      -1.37098601       0.53814168       1.28316710       0.00571543      -0.02993046      -0.00686020     -10.38080406
Hf       1.94619015       3.81197983      23.09525377  T       0.69538537       2.32376184      -3.75263744       0.00454515      -0.03161864       0.00823721      -9.13735199
Hf      -0.01421060       8.51302699      23.24149333  T       2.51553429       0.72456935      -0.89484266       0.00844745      -0.00164542       0.00277006     -10.16711998
Hf       5.80222082       3.56009269      15.85691643  F       0.00000000       0.00000000       0.00000000      -0.00824972       0.08961353       0.40548965     -10.29531384
Hf       3.86814713       8.50963974      15.85691643  F       0.00000000       0.00000000       0.00000000      -0.00240730       0.33246744      -0.02195442      -9.61530399
Hf       5.80584828       3.62032151      19.55714043  T       0.24986868      -1.03900279      -1.66822705       0.00284532       0.00247774      -0.01597671     -10.40310001
Hf       3.86257506       8.58406794      19.53429048  T      -0.26665018      -0.50052929      -2.72185255      -0.00555251      -0.02758031      -0.01676167     -10.38471413
Hf       5.80874418       3.81881571      23.12243458  T      -1.53590670      -1.43442448      -7.39338595      -0.00235850      -0.04818347       0.00654858      -9.85772038
Hf       3.86414232       8.52077017      23.23169340  T      -0.14183358       0.08004273      -0.38309106      -0.00787346       0.00473252      -0.01016772     -10.17612457
Hf       9.67036819       3.56009269      15.85691643  F       0.00000000       0.00000000       0.00000000      -0.03316719       0.07820040       0.39141986     -10.29813480
Hf       7.73629427       8.50963974      15.85691643  F       0.00000000       0.00000000       0.00000000      -0.00743041       0.33282518      -0.02748451      -9.61657143
Hf       9.65745387       3.61559408      19.54854074  T      -0.92272259       1.92732901       0.44226188      -0.00469833       0.00215217       0.00157797     -10.37955666
Hf       7.73375115       8.58214114      19.53283825  T       1.08638045       1.21262026       0.44832176       0.00506236      -0.02328038       0.00997200     -10.39765835
Hf       9.57800248       3.76048215      23.18891759  T      -3.46898136       4.16562798      -0.79277836       0.05087912      -0.02521831      -0.00254941     -10.41515923
Hf       7.73178577       8.55779093      23.21419013  T      -1.43304898      -1.20800897      -2.71348302       0.00041432      -0.03447807      -0.00380353     -10.21169281
Sc      -0.00000000       1.40585887      13.99139690  F       0.00000000       0.00000000       0.00000000      -0.00098230       0.20395270       0.22220214      -7.20669365
Sc       1.93407357       6.35540581      13.99139690  F       0.00000000       0.00000000       0.00000000      -0.00115902      -0.62604737       0.67229480      -6.27329302
Sc      -0.00170902       1.41954975      17.67539133  T       0.65096187       0.59325933       0.37506420       0.00236929       0.01463659      -0.00117275      -7.19990396
Sc       1.92884403       6.37885452      17.64848895  T       0.19858454       0.02200935       0.21658520      -0.00161449      -0.00174417      -0.00266547      -7.16760731
Sc       0.00056900       1.45383446      21.41475720  T      -0.12888151       0.10378649       0.54863991       0.00574676      -0.00491014       0.00883988      -6.80811119
Sc       1.91284643       6.43157125      21.30517317  T       0.10246396       0.94691256      -0.54454758       0.00820278      -0.01172706       0.03004355      -7.21818686
Sc       3.86814713       1.40585887      13.99139690  F       0.00000000       0.00000000       0.00000000      -0.00161451       0.20513907       0.22385849      -7.20613146
Sc       5.80222082       6.35540581      13.99139690  F       0.00000000       0.00000000       0.00000000      -0.00083262      -0.62666821       0.67162269      -6.27208042
Sc       3.86296321       1.42215265      17.67559952  T       0.16497573       0.54591734       0.48478148      -0.00262836       0.02296232      -0.01021089      -7.20196867
Sc       5.80314873       6.38116626      17.65286883  T       0.45086470      -0.85373152      -0.90177244      -0.00395531      -0.01159166      -0.00439803      -7.17378521
Sc       3.87749811       1.46627420      21.42929082  T       0.52748600       0.42580265       0.04247182      -0.00783138      -0.00345320       0.02091001      -6.84761810
Sc       5.78240342       6.41739740      21.31922534  T      -0.15975184      -0.99490617      -0.45519132       0.02122990      -0.00213657       0.02668640      -7.26198864
Sc       7.73629427       1.40585887      13.99139690  F       0.00000000       0.00000000       0.00000000      -0.00116813       0.20746750       0.22344097      -7.20702028
Sc       9.67036819       6.35540581      13.99139690  F       0.00000000       0.00000000       0.00000000      -0.00017036      -0.62545884       0.67116719      -6.27415180
Sc       7.73401718       1.43080532      17.66635680  T       1.25068635      -0.27134025      -0.65276855       0.00582639       0.00446567       0.00822280      -7.19040442
Sc       9.66301660       6.37992906      17.64674540  T      -0.45080328       0.18216378      -0.79596180       0.01813103      -0.00718883       0.01927821      -7.17044830
Sc       7.72411546       1.50796074      21.42061502  T      -0.00373049      -0.50845860       1.26547099       0.00499049      -0.00452863       0.01791979      -6.79111147
Sc       9.68430422       6.41793400      21.32420638  T       0.62622334      -0.98365208       0.38907146       0.00603484      -0.02828719       0.00113327      -7.24904156
Si       1.93407357       0.80531353      12.12587738  F       0.00000000       0.00000000       0.00000000       0.00068580      -0.98606253      -0.05364588      -4.51963711
Si      -0.00000000       4.12782955      13.99139690  F       0.00000000       0.00000000       0.00000000      -0.00124590       0.97848070      -0.23558772      -5.08978653
Si      -0.00000000       5.75486040      15.85691643  F       0.00000000       0.00000000       0.00000000      -0.01739290       0.06709425      -0.65041614      -6.48720169
Si       1.93435903       9.10564130      17.65386732  T      -0.48598715      -0.00057294      -0.69326095      -0.00867589      -0.00426704       0.00056865      -6.67870903
Si       1.93407357       0.80531353      15.85691643  F       0.00000000       0.00000000       0.00000000      -0.01663556       0.05952236      -0.35887095      -6.42878675
Si      -0.00998809       4.14929364      17.69257921  T      -0.02924988       0.32436147       0.15390431       0.01989672      -0.00082990       0.00420143      -6.58764267
Si      -0.01020270       5.80797318      19.48797864  T       0.28112137       0.08767962       0.22384856      -0.00739362      -0.00852456       0.00597418      -6.45070839
Si       1.92425325       9.12441690      21.42178779  T       0.40560402       0.76691970      -0.01521808       0.00867214       0.02061936      -0.01554684      -6.54864883
Si       1.92880016       0.87139053      19.52544207  T       0.84864331      -0.45732461       0.74523316       0.00981443       0.01416551      -0.00108351      -6.53254414
Si       0.00208373       4.20332569      21.36417993  T      -0.00290517       0.16767489       1.13832130      -0.03032185       0.02398515       0.02946346      -6.54816914
Si      -0.00727976       5.71720591      23.26328429  T       0.50928507      -1.93904119       1.21757190       0.00408078      -0.01850434      -0.00805937      -5.17702532
Si       1.93231254       9.28165576      25.08538035  T      -0.14988488       0.90554598       0.12853967      -0.00262752       0.02940902      -0.00533459      -4.63864040
Si       5.80222082       0.80531353      12.12587738  F       0.00000000       0.00000000       0.00000000      -0.00073065      -0.98537260      -0.05411026      -4.51926708
Si       3.86814713       4.12782955      13.99139690  F       0.00000000       0.00000000       0.00000000       0.00073083       0.97808754      -0.23453042      -5.09054041
Si       3.86814713       5.75486040      15.85691643  F       0.00000000       0.00000000       0.00000000       0.00119798       0.07517505      -0.63834131      -6.48774624
Si       5.80179311       9.10589066      17.65358666  T      -0.00025569      -0.62907315      -0.55838322      -0.01342168      -0.00740180       0.01792811      -6.67649460
Si       5.80222082       0.80531353      15.85691643  F       0.00000000       0.00000000       0.00000000      -0.03356825       0.07010981      -0.38516453      -6.42869997
Si       3.86498788       4.15614305      17.69564119  T      -0.08194742       0.73193623      -0.00512649       0.01070159      -0.03583521       0.02576489      -6.58602810
Si       3.85805684       5.81688641      19.48837708  T       0.04029539      -0.19337232       0.31983556       0.01089812      -0.02139031       0.00949597      -6.45204115
Si       5.79365968       9.12322036      21.41168412  T       0.18943340       0.45309781       0.14584850       0.00655598      -0.00235415       0.00033095      -6.55319405
Si       5.80143920       0.88520494      19.51395968  T       0.64148695      -0.09385990       0.09595996       0.00651935      -0.00455917       0.02308319      -6.53264475
Si       3.84714292       4.21307138      21.33965056  T      -0.53183874       0.56946189       0.95810008      -0.01550966       0.01831784      -0.02925572      -6.56619930
Si       3.84409029       5.74292223      23.22690505  T       0.16946084      -1.56655863       0.93973332       0.01461514       0.01701203       0.02102495      -5.19002676
Si       5.80403784       9.29093602      25.07241474  T       0.58775670       0.47776579      -0.86595406       0.01766773      -0.00774440       0.01417422      -4.64187574
Si       9.67036819       0.80531353      12.12587738  F       0.00000000       0.00000000       0.00000000      -0.00031086      -0.98760355      -0.05152532      -4.51946402
Si       7.73629427       4.12782955      13.99139690  F       0.00000000       0.00000000       0.00000000      -0.00338439       0.97840494      -0.23681781      -5.09110737
Si       7.73629427       5.75486040      15.85691643  F       0.00000000       0.00000000       0.00000000      -0.01748031       0.07546145      -0.65375328      -6.48916817
Si       9.66813526       9.10550601      17.65419018  T       0.37266034       0.10576679      -1.00030176       0.00866949      -0.00214014       0.00175744      -6.67711449
Si       9.67036819       0.80531353      15.85691643  F       0.00000000       0.00000000       0.00000000       0.00847787       0.06173904      -0.38677013      -6.42888451
Si       7.73262348       4.15991186      17.69892637  T      -0.13910018       0.59916605       0.31919585      -0.00000602      -0.00647200      -0.01898619      -6.59189510
Si       7.73552800       5.81401629      19.50877305  T       0.19960624       0.00916268       0.17101892       0.00309534       0.00814289      -0.01475926      -6.46808624
Si       9.67070816       9.12179532      21.41146732  T      -0.48571557      -0.02348063      -0.12619625       0.00397895       0.00671151       0.00566165      -6.55336952
Si       9.66366055       0.88262737      19.51518960  T       0.48952619      -0.66600569       0.14728111      -0.00581776       0.00130580       0.01812244      -6.52923822
Si       7.72962199       4.22551419      21.39666490  T      -0.04329502      -0.29516556       2.01240312      -0.01536239      -0.02011028      -0.02817845      -6.41886425
Si       7.76318719       5.78031384      23.19044014  T       0.51131801      -1.46832784      -0.78008829      -0.02673005       0.03801751      -0.00472249      -5.19319963
Si       9.65063714       9.29938598      25.07854462  T       0.42466892       0.78863055      -0.28958202       0.00687307      -0.00488272       0.00759679      -4.64171982
N        6.96797645       4.16493911      24.98541476  T       2.22623662       0.87446443       5.00196481      -0.01227134       0.01010669       0.05594328      -9.60107994
O        8.18982169       3.69922497      24.62753228  T       0.89371690       2.04219334      -0.69178815       0.05671251       0.01800732      -0.07753789      -5.73840046
H        7.08910750       5.13164585      25.35117104  T       0.51675731      -0.11590547       0.76229603      -0.03137061      -0.07849688      -0.00809585      -3.21740413
H        6.66051419       3.53205508      25.75295560  T       0.55719724      -0.08261919       0.38915227       0.01522473      -0.06004901       0.00982782      -3.22148132
H        8.46240479       2.98448406      25.31341632  T      -0.33508334      -0.36006718      -0.19436970      -0.02049124      -0.03000389       0.00074822      -3.06223631
