48
Lattice="8.838089942932129 0.0 -5.102673530578613 3.099999979481495e-15 19.10738754272461 1.2000000467046398e-15 0.0 0.0 40.821388244628906" Properties=species:S:1:pos:R:3:move_mask:L:1:momenta:R:3:forces:R:3:energies:R:1 adsorbate_info="_JSON {\"site\": {\"coordinates\": [4.910050073333333, 12.490412080000002, 19.390160243333337], \"connectivity\": 3, \"topology\": [25, 35, 44], \"n_vector\": [0.11499852160653275, -0.6269784342012619, 0.7705020331412797], \"h_vector\": [0.9496969808829571, -0.13954422316382314, -0.2803623624586604], \"site_formula\": {\"Sr\": 1, \"Ag\": 2}}, \"smiles\": \"S1S\", \"mdf\": 0.893558100231629, \"adsorbate_formula\": \"HN2\"}" bond_change_count=0 energy=-118.02670288085938 stress="9.880789002636448e-05 -2.12196828215383e-05 -4.209603866911493e-05 -2.12196828215383e-05 9.373547800350934e-05 1.6489771951455623e-05 -4.209603866911493e-05 1.6489771951455623e-05 5.343508382793516e-05" free_energy=-118.02670288085938 pbc="T T F"
Sr       4.75929376       4.31821897      20.50168806  T      -0.73430984      -0.20215628       0.45579208       0.02779996       0.04752756      -0.01411439      -2.14264965
Sr       0.49498690       4.63660986      20.47058477  T       1.66693757       0.90907959       2.42670125      -0.02463910       0.01448893      -0.00030663      -2.40525794
Sr       2.74434906       4.58393328      16.58195348  T      -1.23644991       1.02705571      -0.27786126      -0.00950756       0.00635675      -0.00917550      -2.64607906
Sr       6.76782851       1.72036886      17.99577542  T       2.76786794      -0.66659786      -0.42274617       0.00290869      -0.00349592      -0.00649710      -2.53673387
Sr       2.25062891       1.80024535      22.89360159  T      -0.62718042      -2.22420502      -1.34879249       0.00958604      -0.02556774      -0.03344965      -1.78649783
Sr       8.70874596       1.79635477      11.73008633  F       0.00000000       0.00000000       0.00000000      -0.06220520      -0.11421048       0.00151835      -1.96231103
Sr       5.89206028       3.18456459      14.28748608  F       0.00000000       0.00000000       0.00000000      -0.41626066       0.08878269      -0.19870883      -2.44736123
Sr       5.89206028      18.36384964      14.28748608  F       0.00000000       0.00000000       0.00000000       0.08550101      -0.17305668      -0.11137027      -2.25078034
Sr       5.89206028       7.11266756      14.28748608  F       0.00000000       0.00000000       0.00000000      -0.05053550       0.03077425      -0.25847837      -2.56121969
Sr       8.03166008      10.94190311      15.67213917  F       0.00000000       0.00000000       0.00000000      -0.02513365      -0.04867717      -0.19886827      -2.86877346
Sr       3.62311602      10.94190311      15.44810772  F       0.00000000       0.00000000       0.00000000      -0.26460668       0.03970951       0.07653577      -2.33277822
Sr       6.02140427      10.94190311      11.74221230  F       0.00000000       0.00000000       0.00000000       0.28262651       0.13939956       0.30492443      -1.11882234
Sr       0.62126861       8.30699873      17.65791380  T       0.66821007      -0.75485901      -0.53093292       0.00313578      -0.00284451      -0.00906689      -2.27277994
Sr       4.79265074       8.01936231      18.00498080  T       0.14756546       0.45903235       0.93900474       0.01316878       0.00746055      -0.00684918      -2.57761669
Sr       2.72792788       7.78507457      21.99018436  T      -1.12452611      -1.70342506       0.87068957       0.00584407      -0.01371012      -0.01073968      -2.10065269
Sr      -0.96539363       9.62863191      24.97046184  T       0.30286422      -0.39594196       1.26320316       0.08217178       0.02297939      -0.00507553      -2.29132676
Sr      -0.31114531       5.64585538      24.39309103  T      -0.34155108       0.96273448      -0.06596165      -0.02849483      -0.00356684       0.00132056      -1.91955400
Sr       0.22566990      13.38424752      24.03995481  T       2.03132863       2.13435776      -0.69177375      -0.05789786       0.01203325       0.07434330      -2.36844850
Sr       2.13959980      17.31103325      15.67213917  F       0.00000000       0.00000000       0.00000000      -0.04823527      -0.08297572       0.15520468      -2.21970463
Sr       6.53922693      17.21545003      20.35929544  T      -1.54867711       0.13584903       0.77034739      -0.01568142      -0.03227665      -0.00710739      -2.16420102
Sr       0.22610960      17.30045483      21.93751882  T      -1.85040684      -1.29417661      -1.68978370       0.00911779      -0.04237051      -0.00922534      -2.52505565
Sr       3.75246048      14.53461266      12.90283394  F       0.00000000       0.00000000       0.00000000       0.06500124      -0.15742840       0.33870858      -1.13536143
Sr       8.16100407      14.53461266      13.12686539  F       0.00000000       0.00000000       0.00000000      -0.03350179       0.11206749      -0.38815263      -2.36355448
Sr       5.72816414      14.58079523      16.60999132  T      -1.65318393       0.38487933       0.11693940       0.00715410      -0.00680146       0.00787864      -2.65726662
Sr       2.99666058      15.68524361      19.37998853  T       0.01939346      -2.01553558       0.23627866       0.01074486      -0.03828751      -0.00149017      -2.73956680
Sr       3.29340813      11.67174568      20.47447787  T      -2.94029434      -0.34073903      -1.77072814      -0.07291621       0.05587119       0.00356317      -3.57510996
Sr       2.89236625       0.71796705      19.00672239  T      -0.62698713      -0.30478297      -0.78136936      -0.03717098      -0.03362739      -0.04142494      -2.83288026
Ag       8.06297779       5.15946722      12.40035057  F       0.00000000       0.00000000       0.00000000       0.13629411      -0.10723984       0.10554887      -1.85466981
Ag       6.17484311       4.96447313      17.12076675  T       0.57284747      -0.91787300      -0.67723366      -0.02739636      -0.01699740      -0.01379012      -2.22155142
Ag       3.17229390       5.15946722      13.35098457  F       0.00000000       0.00000000       0.00000000       0.24635041       0.27585822       0.39046508      -1.39952803
Ag       3.48663752       1.33716165      15.84763694  T      -1.43606919       2.17362557       0.17337942       0.02754214      -0.00098265       0.00182633      -2.04442000
Ag       5.21953296       1.16415372      21.16695054  T      -1.56200903       0.06200934      -0.78667447       0.02310285       0.00383277      -0.00409950      -1.88799119
Ag       8.61182594       1.20966172      15.22398853  F       0.00000000       0.00000000       0.00000000      -0.02469227       0.08463593      -0.05869272      -2.26578951
Ag       1.45350509      10.48979260      23.02006773  T      -0.80385849      -0.24114357      -0.45203512      -0.01859002       0.03032115      -0.00106548      -1.82360804
Ag       0.78276985      11.61164556      17.56825237  T      -3.00830424      -1.78713889       1.75684964      -0.01489065       0.00306321      -0.02616892      -2.01005673
Ag       5.81128156      11.55058725      18.06134783  T       4.80306030      -1.81711035      -3.10192678      -0.03246237      -0.03107639       0.01644272      -2.13923025
Ag       5.92670533       7.27038344      20.93626660  T       0.38119066       3.13629530       0.62148331       0.01223407      -0.01394269       0.02855893      -1.73803520
Ag       8.22753740       7.66549050      16.71025688  T       0.40709960      -0.98859981      -1.72425983      -0.01774528       0.01643822       0.00924727      -2.16248465
Ag       2.71976614       7.57879066      15.22398853  F       0.00000000       0.00000000       0.00000000       0.21171479      -0.00866469       0.00846210      -1.91392016
Ag       5.20845928      17.78711836      17.40267582  T      -0.76077745      -1.11011347       1.79729539      -0.02373857      -0.04132942      -0.01701007      -2.19383049
Ag       3.55676396      18.10313094      21.73160471  T       1.04587690       0.34529376       0.96422093       0.00384836      -0.05679391      -0.00995041      -1.92275774
Ag       0.27556182      17.78785117      18.47430965  T       0.50814791      -0.82525801       1.54249603      -0.01914259       0.01002043      -0.01975473      -2.15703011
Ag       0.65628446      14.03437758      21.04195225  T       0.27247988      -1.13251576      -0.08098099      -0.02048120       0.01977254      -0.03676976      -2.08680940
Ag       2.31127999      13.95553037      16.32109110  T      -1.44726441      -1.63818576       0.42478629       0.02268588       0.01694300      -0.02524259      -2.04865193
Ag       5.97632200      14.00015866      19.82238526  T       6.61079084      10.08016033       0.06590402       0.02056696       0.01620011       0.03159128      -2.12946653
N        5.28506898      11.71327348      22.11135363  T      -5.93476482      -4.80884728       5.40856703       0.00330213       0.04680791      -0.01174989      -7.77092743
N        5.37320970      12.77701097      21.67825450  T       1.01077887      -4.65742721       0.12518792       0.01122290      -0.01742694      -0.02807745      -7.99429941
H        1.03976393      12.20539452      21.93008134  T      -1.03915461      -0.03788941       0.72431335       0.02230088      -0.02799356       0.00633234      -3.45929956
