48
Lattice="8.838089942932129 0.0 -5.102673530578613 3.099999979481495e-15 19.10738754272461 1.2000000467046398e-15 0.0 0.0 40.821388244628906" Properties=species:S:1:pos:R:3:move_mask:L:1:momenta:R:3:forces:R:3:energies:R:1 adsorbate_info="_JSON {\"site\": {\"coordinates\": [4.7419292949999985, 7.872137064999999, 21.606365204999996], \"connectivity\": 2, \"topology\": [14, 36], \"n_vector\": [0.34666482514397795, 0.17175751119900598, 0.9221295225480087], \"h_vector\": [0.9747723346405722, -0.1485245596102228, -0.16661137659823103], \"site_formula\": {\"Sr\": 1, \"Ag\": 1}}, \"smiles\": \"S1S\", \"mdf\": 0.6438375113756944, \"adsorbate_formula\": \"HN2\"}" bond_change_count=0 energy=-118.12530517578125 stress="8.001114474609494e-05 -8.197112038033083e-06 -2.68959192908369e-05 -8.197112038033083e-06 0.00010553784522926435 1.6620761016383767e-05 -2.68959192908369e-05 1.6620761016383767e-05 4.2135838157264516e-05" free_energy=-118.12530517578125 pbc="T T F"
Sr       4.98315124       4.71573380      21.42968117  T      -0.53908947      -1.83554871       0.80666272      -0.01433410       0.00548029      -0.05341321      -2.99810505
Sr       0.56969656       4.70035377      20.43027637  T      -0.27074131       0.43179056      -0.39231605      -0.00467015       0.00559018      -0.03024979      -2.38663673
Sr       2.85158176       4.61508926      16.63913001  T      -1.95656452       0.86629605       1.48619107      -0.00856746      -0.00905789       0.00909249      -2.60576844
Sr       6.66232963       1.88072979      18.05099836  T       0.60561357      -0.66327045      -1.04694697      -0.00368539      -0.01636883      -0.00518393      -2.54055834
Sr       2.10112967       1.82801260      22.94161245  T      -0.75499506       0.51222765       0.60993021       0.01352062      -0.01310692       0.01321101      -1.81632781
Sr       8.70874596       1.79635477      11.73008633  F       0.00000000       0.00000000       0.00000000      -0.01689100      -0.04395858      -0.01334340      -1.94920635
Sr       5.89206028       3.18456459      14.28748608  F       0.00000000       0.00000000       0.00000000      -0.33421618       0.08810240      -0.26756853      -2.46374702
Sr       5.89206028      18.36384964      14.28748608  F       0.00000000       0.00000000       0.00000000       0.07721157      -0.15606436      -0.12887478      -2.25324297
Sr       5.89206028       7.11266756      14.28748608  F       0.00000000       0.00000000       0.00000000      -0.05539460       0.09653474      -0.35368109      -2.58404446
Sr       8.03166008      10.94190311      15.67213917  F       0.00000000       0.00000000       0.00000000      -0.25545707      -0.07430486      -0.33323997      -2.67813730
Sr       3.62311602      10.94190311      15.44810772  F       0.00000000       0.00000000       0.00000000      -0.20503607      -0.00098027      -0.00376805      -2.28448129
Sr       6.02140427      10.94190311      11.74221230  F       0.00000000       0.00000000       0.00000000       0.23966718       0.12606817       0.28746927      -1.20411062
Sr       0.62812244       8.29337081      17.57689641  T       1.41458409       1.71520504      -1.22094744      -0.01179568       0.00040841       0.01308469      -2.28895330
Sr       5.09065696       8.12196788      18.06117383  T      -0.10337501       0.09141602       0.41516573       0.00941453      -0.00176443       0.00672296      -2.58765721
Sr       2.95660791       8.35023089      22.14617845  T      -2.22847892       1.27180477      -4.26860681       0.00132865      -0.00011835       0.01747644      -3.79737616
Sr      -0.29366108       9.71046870      24.62853186  T       0.55993524       0.51398636       0.38994562      -0.03786721      -0.03865509       0.00691322      -2.17104816
Sr      -0.27960416       5.59042666      24.33257006  T       0.97917617      -1.32868807       0.39482645       0.03731627      -0.00046426      -0.02710014      -1.93315530
Sr      -0.05812515      13.74063948      24.36584679  T       0.89446861      -0.53540385      -0.24509106      -0.01548033       0.02315564      -0.00787367      -2.12707472
Sr       2.13959980      17.31103325      15.67213917  F       0.00000000       0.00000000       0.00000000      -0.05697609      -0.05639161       0.18987654      -2.20463085
Sr       6.42911873      17.32872164      20.40705869  T      -0.34609886      -0.80910392       2.76358156      -0.00989906      -0.01382557       0.00645726      -2.15799904
Sr       0.14462962      17.34070006      21.99253156  T      -0.81585497       1.41947030      -0.05264273      -0.02970053      -0.00331937       0.00081063      -2.48197508
Sr       3.75246048      14.53461266      12.90283394  F       0.00000000       0.00000000       0.00000000       0.04760869      -0.15093577       0.28577074      -1.09712744
Sr       8.16100407      14.53461266      13.12686539  F       0.00000000       0.00000000       0.00000000       0.02844122       0.11047681      -0.19443068      -2.36620808
Sr       5.65966754      14.62028126      16.54791320  T      -0.14315512      -0.48463087       0.07487051       0.00237903      -0.00053978       0.02784818      -2.63759017
Sr       2.89395000      15.86057387      19.48266113  T       0.02676189       0.82918537      -1.06136494       0.01847073      -0.01593681      -0.02288598      -2.67902040
Sr       3.04188637      11.93421068      19.51097752  T       2.88385292       0.56791179      -1.58375853      -0.01883449      -0.01322826       0.00543437      -2.73712897
Sr       2.85896413       0.81062434      19.08453105  T      -0.49857708       1.05559111       1.41738934      -0.03516447       0.00802897      -0.07969189      -2.81436706
Ag       8.06297779       5.15946722      12.40035057  F       0.00000000       0.00000000       0.00000000       0.17314741      -0.10632151       0.08153415      -1.84335828
Ag       6.32213274       5.08473311      16.92733710  T      -0.37887343       0.73626597      -0.35335765      -0.00462172      -0.01180854       0.01709331      -2.18291092
Ag       3.17229390       5.15946722      13.35098457  F       0.00000000       0.00000000       0.00000000       0.24124409       0.26115319       0.43942589      -1.39917314
Ag       3.62932355       1.32836214      15.95262655  T       0.33028751      -1.02154580      -0.99120297      -0.02009904       0.00349035       0.01875194      -2.06874371
Ag       5.14033825       1.32950192      21.26678903  T      -3.04976223       0.04681108      -0.85962719       0.00994728      -0.02869180       0.03197963      -1.86562586
Ag       8.61182594       1.20966172      15.22398853  F       0.00000000       0.00000000       0.00000000      -0.09943171       0.14890638       0.00685302      -2.26355910
Ag       1.69586837      11.60174913      22.62191007  T      -1.51795112       0.14245814       0.04118051       0.02078172      -0.01640809       0.00549324      -1.86164558
Ag       0.51867752      11.57032567      17.31693344  T      -1.51364310       2.35211456      -0.10808137      -0.00267042      -0.00154775      -0.00983576      -2.02613544
Ag       6.04544047      11.57408893      18.27947368  T       0.63039521       1.14903917      -0.10433532       0.00961512      -0.00027919      -0.00577172      -2.18442178
Ag       6.58025610       7.50617101      20.82353869  T       0.89072205       0.22942880      -2.87387084      -0.00278751       0.01827299      -0.02770754      -2.06344414
Ag       8.26892249       7.71440345      16.66850341  T      -0.14438773      -0.47350452      -0.22060896       0.00904743      -0.00833828       0.00080472      -2.15808034
Ag       2.71976614       7.57879066      15.22398853  F       0.00000000       0.00000000       0.00000000       0.29020429      -0.02457186       0.00114970      -1.89987540
Ag       5.14594188      17.84592098      17.40014598  T       1.17302085       1.02024913      -0.48771944      -0.00371134       0.00591392       0.00633518      -2.21644926
Ag       3.50368776      18.19863064      21.77656571  T      -0.33769664      -0.41983210       0.16388644       0.00715374      -0.00956230       0.03126125      -1.92441130
Ag       0.23811369      17.83071982      18.45208091  T       0.85717510       0.00248168       1.46738789       0.00157622       0.00581089       0.00312610      -2.15961599
Ag       0.72147097      14.00522513      21.22940327  T       0.63706236      -1.17216794      -1.00394098      -0.00863936      -0.01328516       0.01791254      -2.19223785
Ag       2.32753059      13.94240862      16.40814147  T       1.26286184       1.14709851       0.49696614      -0.00681141      -0.00168078      -0.00679694      -2.11230183
Ag       5.64776794      14.06618345      19.78349738  T       2.06918700       1.90653990      -0.69169826       0.00649520       0.01157730      -0.02808329      -1.94730437
N        5.03642242       6.92129169      22.27583563  T      -1.59832040       0.44227411       0.31176950      -0.00084072      -0.07148245       0.01577446      -6.82914543
N        4.91625106       7.71534639      23.33021608  T       3.06243141      -2.09524855       3.77259507       0.00099900      -0.00275972       0.02647251      -7.79605913
H        5.71482397       7.66499200      23.96359251  T       1.74223580       0.99704198      -0.32108621       0.01801306      -0.01321223       0.02536497      -3.28510571
