48
Lattice="8.838089942932129 0.0 -5.102673530578613 3.099999979481495e-15 19.10738754272461 1.2000000467046398e-15 0.0 0.0 40.821388244628906" Properties=species:S:1:pos:R:3:move_mask:L:1:momenta:R:3:forces:R:3:energies:R:1 adsorbate_info="_JSON {\"site\": {\"coordinates\": [3.49487877, 17.89772606, 22.21379852], \"connectivity\": 1, \"topology\": [40], \"n_vector\": [0.1665394353370176, 0.01569725783610901, 0.9859098399823658], \"h_vector\": [1.0, 0.0, 0.0], \"site_formula\": {\"Ag\": 1}}, \"smiles\": \"Cl\", \"mdf\": 1.7279160645691019, \"adsorbate_formula\": \"HN2\"}" bond_change_count=0 energy=-117.47650146484375 stress="8.276905282400548e-05 -1.4199274119164329e-05 -3.823740189545788e-05 -1.4199274119164329e-05 0.0001011449858197011 6.339473657135386e-06 -3.823740189545788e-05 6.339473657135386e-06 5.593727109953761e-05" free_energy=-117.47650146484375 pbc="T T F"
Sr       4.72107969       4.45140052      20.45474773  T      -0.16359162      -1.80381037       1.39492208      -0.01133589       0.00414309      -0.01042502      -2.10624337
Sr       0.48702154       4.61007611      20.53139525  T      -2.71714213       0.54449313       1.45810464       0.01666342       0.02993119       0.01211658      -2.37074661
Sr       2.69704651       4.58970742      16.57150522  T      -1.13433125      -0.81783211       0.24408768       0.00560216      -0.02415615      -0.00240862      -2.65786314
Sr       6.66599496       1.70183059      18.03803826  T      -0.16779686      -0.47039858       1.33453658       0.04812304      -0.01775161      -0.05303400      -2.57506466
Sr       2.64008117       1.98559854      23.87338227  T      -1.26261788       0.85613594       1.11555913       0.01479810      -0.01494408       0.03946182      -3.66669559
Sr       8.70874596       1.79635477      11.73008633  F       0.00000000       0.00000000       0.00000000      -0.01320533      -0.14815778       0.06835759      -1.96006632
Sr       5.89206028       3.18456459      14.28748608  F       0.00000000       0.00000000       0.00000000      -0.43361729       0.06975907      -0.18566169      -2.44975471
Sr       5.89206028      18.36384964      14.28748608  F       0.00000000       0.00000000       0.00000000       0.08046147      -0.16717196      -0.10079505      -2.25022435
Sr       5.89206028       7.11266756      14.28748608  F       0.00000000       0.00000000       0.00000000      -0.06808110       0.00830925      -0.30611131      -2.55413556
Sr       8.03166008      10.94190311      15.67213917  F       0.00000000       0.00000000       0.00000000      -0.21527009      -0.12178482      -0.30377805      -2.69767499
Sr       3.62311602      10.94190311      15.44810772  F       0.00000000       0.00000000       0.00000000      -0.22706598       0.03738835      -0.02233125      -2.32275724
Sr       6.02140427      10.94190311      11.74221230  F       0.00000000       0.00000000       0.00000000       0.25131205       0.13007276       0.28385407      -1.19276929
Sr       0.61504439       8.29069786      17.66606243  T       0.94074845       0.78370253      -1.78762547       0.00212769      -0.01191898      -0.02228136      -2.32894063
Sr       4.86832693       8.04597936      17.96840167  T      -1.19371362      -0.88037191       1.03359965       0.02809546       0.02169112       0.06500929      -2.62274575
Sr       2.63854977       8.14719406      21.88419187  T      -0.14920441       0.23982168       0.24248175       0.01283187       0.01632800       0.00056063      -2.11005449
Sr      -0.59985265       9.64146629      24.68713278  T       1.52207230      -0.83676203      -0.98022211       0.05207448      -0.01691218      -0.00869388      -2.18842697
Sr      -0.46738017       5.68384673      24.41348693  T      -0.61860576      -0.40110814      -0.35183312       0.02273484       0.01634682      -0.02100036      -1.89819622
Sr      -0.02702233      13.62099427      24.27241632  T      -0.40099464       1.20935197      -0.30682061       0.00891108       0.00783845       0.01318867      -2.12732649
Sr       2.13959980      17.31103325      15.67213917  F       0.00000000       0.00000000       0.00000000      -0.09075689      -0.05519904       0.19233239      -2.21112633
Sr       6.49004982      17.13622589      20.32340341  T      -0.22988778      -0.42833073      -1.99806656      -0.02542028       0.01044197      -0.04960358      -2.18323708
Sr       0.23200874      17.29526207      21.91882052  T      -0.05638137       0.06139285      -0.21777800      -0.02209939       0.01803275       0.02505502      -2.44698954
Sr       3.75246048      14.53461266      12.90283394  F       0.00000000       0.00000000       0.00000000       0.04258452      -0.15127929       0.28684825      -1.11433625
Sr       8.16100407      14.53461266      13.12686539  F       0.00000000       0.00000000       0.00000000       0.01475404       0.08366759      -0.23432991      -2.36472011
Sr       5.67885954      14.62644986      16.54065992  T       1.61674351      -0.75997324      -0.16445639      -0.01664731       0.00281528      -0.03473357      -2.62715960
Sr       2.91270692      15.75505428      19.43006480  T       0.16010207      -1.19497754       1.22170906       0.04866946       0.02670957      -0.03510445      -2.67530298
Sr       3.03563627      11.78377946      19.63200761  T       2.70664010       0.47983894      -0.07491212       0.01694682      -0.00426630       0.01201302      -2.72871351
Sr       2.84375659       0.75301682      19.22999472  T      -1.26428051       0.08399378      -1.80678734      -0.04479735      -0.00502889      -0.08011008      -2.87302184
Ag       8.06297779       5.15946722      12.40035057  F       0.00000000       0.00000000       0.00000000       0.15470865      -0.13936286       0.17595883      -1.86442733
Ag       6.05026408       4.89675002      17.13852717  T       0.16495371      -0.82723710       0.69936087       0.04762368       0.02518710       0.00190660      -2.21955514
Ag       3.17229390       5.15946722      13.35098457  F       0.00000000       0.00000000       0.00000000       0.24136600       0.27466029       0.38008097      -1.39605331
Ag       3.59454736       1.31098310      16.05589726  T       1.54144157       1.62109465      -0.99546491       0.00953561      -0.01098949       0.00187688      -2.07542133
Ag       5.37972917       1.24064383      21.09689644  T      -1.10910438       0.23186963      -0.56144300       0.03190754       0.00576493       0.05434840      -2.03145170
Ag       8.61182594       1.20966172      15.22398853  F       0.00000000       0.00000000       0.00000000      -0.25589010       0.06581315      -0.13461362      -2.18065858
Ag       1.69071265      11.25304619      22.74329515  T       0.34690813       0.15967115      -0.29235406      -0.00661714      -0.01930300      -0.02710177      -1.81547964
Ag       0.55291521      11.57743432      17.29253401  T       1.29555786       1.72173743      -0.24515641       0.00534520       0.00752750       0.02219350      -2.02496123
Ag       5.94078899      11.52701537      18.14977165  T      -0.67518698      -1.27143862      -1.18322413      -0.01694245      -0.00530991       0.00889035      -2.19219685
Ag       5.94110844       7.43752468      20.92960227  T      -1.34956571       1.04744324      -2.36478043       0.01101413       0.02627987      -0.00801677      -1.69783878
Ag       8.21692346       7.67000797      16.64510853  T       1.25216759      -0.68625893       1.75560458       0.00120549      -0.00087891       0.02241478      -2.15272450
Ag       2.71976614       7.57879066      15.22398853  F       0.00000000       0.00000000       0.00000000       0.21408874      -0.00474072      -0.01005970      -1.91307318
Ag       5.07762042      17.82904145      17.39176860  T       1.87474138      -1.29489331       0.65125085      -0.00785287      -0.00993420       0.00498157      -2.21796799
Ag       3.58667202      17.95132322      21.74211446  T      -0.95417744      -4.21581766      -5.55713193      -0.01202299      -0.03242744       0.00289498      -2.08768702
Ag       0.24890660      17.80998103      18.49488607  T       0.95433667      -0.95161927       1.42982323       0.01777816       0.02558138      -0.01042465      -2.15777230
Ag       0.73257009      13.95458807      21.19011993  T      -1.42070073       0.48121029       0.74558860      -0.01658520       0.01021364      -0.00215601      -2.14571691
Ag       2.29478199      13.94118532      16.33436460  T       0.28736565      -0.83098646      -1.53295307       0.01918891      -0.00139156       0.00987925      -2.10244894
Ag       5.66190910      13.92590017      19.71769647  T      -0.43278865      -1.00593892       0.54182517       0.00526371       0.01094747       0.02231548      -1.96527207
N        4.26823253      19.69609160      22.89506683  T       1.15463161       3.68772106       3.44774781       0.07084878      -0.05887154       0.02586669      -6.89701509
N        4.49894886      19.67914329      24.18928365  T       0.54689373       0.52385949       1.32312184      -0.03883857       0.04341677      -0.04961607      -7.78468180
H        5.10664334      18.92040161      24.49948638  T       0.74562150       0.09598185       0.17328344       0.02648117       0.04291332      -0.02001493      -3.24979830
