48
Lattice="8.838089942932129 0.0 -5.102673530578613 3.099999979481495e-15 19.10738754272461 1.2000000467046398e-15 0.0 0.0 40.821388244628906" Properties=species:S:1:pos:R:3:move_mask:L:1:momenta:R:3:forces:R:3:energies:R:1 adsorbate_info="_JSON {\"site\": {\"coordinates\": [2.9460301399999995, 13.95877123, 19.390159609999998], \"connectivity\": 2, \"topology\": [24, 25], \"n_vector\": [0.25779280079311884, 0.0787733101508769, 0.9629837160965461], \"h_vector\": [0.0, 1.0, 0.0], \"site_formula\": {\"Sr\": 2}}, \"smiles\": \"S1S\", \"mdf\": 0.6429197691747559, \"adsorbate_formula\": \"HN2\"}" bond_change_count=1 energy=-117.33960723876953 stress="8.389219146920368e-05 -2.4600635697424877e-06 -3.395772000658326e-05 -2.4600635697424877e-06 9.358138777315617e-05 8.314275873999577e-06 -3.395772000658326e-05 8.314275873999577e-06 4.359688682598062e-05" free_energy=-117.33960723876953 pbc="T T F"
Sr       4.80485231       4.57601562      20.46663158  T      -0.73105082      -0.20277331       0.45789649      -0.00253182      -0.01477919       0.01821630      -2.13964152
Sr       0.54124141       4.73449060      20.41849586  T       1.66453029       0.90033742       2.42450833       0.00264816       0.00236059       0.00782550      -2.39592981
Sr       2.73692188       4.59551925      16.57012516  T      -1.23710467       1.02482286      -0.27838194       0.01210945       0.00384720       0.00906738      -2.65593171
Sr       6.71581779       1.80101362      18.01384177  T       2.77569728      -0.68146104      -0.42747981       0.00205190      -0.00148145       0.00577613      -2.55594015
Sr       2.23879321       1.94499993      22.83741549  T      -0.64823722      -2.22129044      -1.34975846      -0.00731460      -0.01026537       0.00593786      -1.82641411
Sr       8.70874596       1.79635477      11.73008633  F       0.00000000       0.00000000       0.00000000      -0.08559921      -0.10265490      -0.00874578      -1.94589353
Sr       5.89206028       3.18456459      14.28748608  F       0.00000000       0.00000000       0.00000000      -0.37204289       0.10026225      -0.20716608      -2.45588303
Sr       5.89206028      18.36384964      14.28748608  F       0.00000000       0.00000000       0.00000000       0.06052608      -0.18601355      -0.14888322      -2.25273943
Sr       5.89206028       7.11266756      14.28748608  F       0.00000000       0.00000000       0.00000000      -0.06498489       0.03807581      -0.32734650      -2.55502009
Sr       8.03166008      10.94190311      15.67213917  F       0.00000000       0.00000000       0.00000000      -0.05220129      -0.03271004      -0.28321126      -2.67632413
Sr       3.62311602      10.94190311      15.44810772  F       0.00000000       0.00000000       0.00000000      -0.19773464       0.01541405      -0.09092701      -2.26130652
Sr       6.02140427      10.94190311      11.74221230  F       0.00000000       0.00000000       0.00000000       0.25800550       0.13549256       0.29789394      -1.18976402
Sr       0.61607076       8.27998829      17.63265682  T       0.67092136      -0.71327259      -0.51562030       0.00387127       0.00233062      -0.00381523      -2.32941461
Sr       5.03126828       8.10137206      17.97336489  T       0.15215775       0.55435573       0.97090112      -0.01056598      -0.01589416       0.00643673      -2.59121537
Sr       2.74936000       8.16788096      21.85879258  T      -1.09701467      -1.56279709       0.87208472       0.00792294       0.02006220       0.01467236      -1.97754073
Sr      -0.29550688       9.67797890      24.55208619  T       0.27529711      -0.27424956       1.24672446       0.02167593       0.00056970      -0.01172525      -2.16504288
Sr      -0.25997723       5.67686639      24.29259010  T      -0.34547668       0.95919703      -0.05691644      -0.01562613      -0.01500975       0.01987060      -1.92849588
Sr      -0.10095439      13.70397054      24.44063351  T       1.35413760       2.08104788      -0.37216351       0.02189264      -0.02188015      -0.01319654      -2.12658644
Sr       2.13959980      17.31103325      15.67213917  F       0.00000000       0.00000000       0.00000000      -0.05294117      -0.13788985       0.26205474      -2.21969867
Sr       6.41441639      17.32219406      20.40523870  T      -1.34840645       0.27338372       0.81913150      -0.00931033      -0.01445466       0.02386026      -2.17286038
Sr       0.07451398      17.43855715      22.07877965  T      -2.02940375      -1.18759942      -1.68460055      -0.00507121       0.01837166      -0.01196745      -2.47658539
Sr       3.75246048      14.53461266      12.90283394  F       0.00000000       0.00000000       0.00000000       0.06258471      -0.15600011       0.33813989      -1.13225341
Sr       8.16100407      14.53461266      13.12686539  F       0.00000000       0.00000000       0.00000000      -0.11732183       0.12335709      -0.35212570      -2.34677219
Sr       5.58088801      14.64047895      16.69292825  T      -1.34295016       0.18601324       0.02696039      -0.00505356       0.00234802      -0.00097555      -2.73722076
Sr       2.81670272      15.59514243      19.86226424  T      -0.12855132       2.54116548      -3.79760538      -0.00587208      -0.01818293       0.03884112      -3.29368448
Sr       3.18954395      11.68967004      19.64072384  T      -0.83967625       0.15702619      -2.33447244      -0.00848090       0.01633632       0.00600761      -3.84074736
Sr       2.83890223       0.66399678      18.99451659  T      -0.63476647      -0.20303643      -0.78985059       0.02172350       0.00445750       0.03401829      -2.84367275
Ag       8.06297779       5.15946722      12.40035057  F       0.00000000       0.00000000       0.00000000       0.11088116      -0.11663158       0.04980918      -1.85543787
Ag       6.13581904       4.97819577      17.09662920  T       0.57967780      -0.93186897      -0.68248591       0.00482420       0.00767758       0.00470959      -2.21745872
Ag       3.17229390       5.15946722      13.35098457  F       0.00000000       0.00000000       0.00000000       0.24455379       0.26957834       0.37473702      -1.39743519
Ag       3.53672144       1.33054222      15.89488706  T      -1.43574677       2.16437812       0.18072973       0.00994655      -0.00538909      -0.01589239      -2.05872917
Ag       5.14386924       1.35736787      21.13096164  T      -1.55344856       0.06877116      -0.78848639      -0.00667686      -0.02258745       0.00473586      -1.89364326
Ag       8.61182594       1.20966172      15.22398853  F       0.00000000       0.00000000       0.00000000      -0.05801176       0.15420337      -0.05091688      -2.25747657
Ag       1.73104473      11.61682248      22.65486588  T      -1.46954471      -2.04840272       0.76143289      -0.06485964      -0.02507275       0.04605475      -2.06002092
Ag       0.55939228      11.59827130      17.30015272  T      -2.90534538      -1.74286947       1.90484616      -0.00977021      -0.00339403       0.00229557      -2.00720286
Ag       6.11021094      11.60904442      18.19426260  T       2.27785657      -0.09310292       0.97694860       0.00081068      -0.01130352       0.00177110      -2.14451456
Ag       6.18124287       7.51812016      20.87264956  T       0.37507398       3.14868314       0.61633877       0.00532304      -0.00369198       0.01710693      -1.67202663
Ag       8.34024254       7.73881028      16.57525416  T       0.39666618      -0.97076004      -1.73577946      -0.01578665      -0.00277915       0.00767133      -2.16888523
Ag       2.71976614       7.57879066      15.22398853  F       0.00000000       0.00000000       0.00000000       0.25659186       0.01635114      -0.00580620      -1.90662694
Ag       5.17568487      17.84637653      17.39172312  T      -0.67567937      -1.03965984       1.74045248       0.00390423       0.00824570       0.00413348      -2.17927217
Ag       3.51800296      18.24267375      21.81096063  T       1.09415242       0.60248159       1.11004376      -0.00686173      -0.00972239      -0.00023779      -1.90391445
Ag       0.21339238      17.78454123      18.45746202  T       0.42171751      -0.77546455       1.51698070       0.00556020       0.00730233       0.00786835      -2.12326479
Ag       0.08124771      14.17410798      21.31102814  T      -4.17976223      -0.83156954       0.45225816       0.02424895       0.00719637      -0.00305599      -2.08439040
Ag       2.26250707      13.93576026      16.26100945  T      -1.47706544      -1.69792281       0.40566427      -0.01376160      -0.00428988       0.00025647      -2.04774237
Ag       5.69630477      14.09413356      19.94121344  T       2.68207030      -1.07063632      -0.10228535       0.02569777       0.02494772      -0.01148685      -2.14190555
N        3.78344104      13.63921882      21.00928408  T       1.86056397      -3.95763862       1.24685801       0.00021493       0.01530947      -0.03021717      -6.64139557
N        3.60300082      12.68706865      21.91774021  T       2.44279626      -0.99218753       3.10829118       0.01975185      -0.04127285       0.03424923      -8.22197342
H        4.22866046      12.83492673      22.71989568  T      -0.35531829       0.54362807       0.48554340       0.00105971      -0.02074689      -0.06631869      -3.26369381
