48
Lattice="8.838089942932129 0.0 -5.102673530578613 3.099999979481495e-15 19.10738754272461 1.2000000467046398e-15 0.0 0.0 40.821388244628906" Properties=species:S:1:pos:R:3:move_mask:L:1:momenta:R:3:forces:R:3:energies:R:1 adsorbate_info="_JSON {\"site\": {\"coordinates\": [3.49487877, 17.89772606, 22.21379852], \"connectivity\": 1, \"topology\": [40], \"n_vector\": [0.1665394353370176, 0.01569725783610901, 0.9859098399823658], \"h_vector\": [1.0, 0.0, 0.0], \"site_formula\": {\"Ag\": 1}}, \"smiles\": \"Cl\", \"mdf\": 1.7279160645691019, \"adsorbate_formula\": \"HN2\"}" bond_change_count=0 energy=-117.47648620605469 stress="8.27869662316516e-05 -1.4206746527634095e-05 -3.823060615104623e-05 -1.4206746527634095e-05 0.00010116153862327337 6.334806130325887e-06 -3.823060615104623e-05 6.334806130325887e-06 5.5938766308827326e-05" free_energy=-117.47648620605469 pbc="T T F"
Sr       4.72115444       4.45141370      20.45483409  T      -0.16359162      -1.80381037       1.39492208      -0.01136563       0.00417691      -0.01047238      -2.10623789
Sr       0.48704640       4.61008798      20.53138098  T      -2.71714213       0.54449313       1.45810464       0.01665981       0.02994084       0.01212403      -2.37076306
Sr       2.69711359       4.58971872      16.57155527  T      -1.13433125      -0.81783211       0.24408768       0.00556385      -0.02418701      -0.00244132      -2.65785933
Sr       6.66600115       1.70186803      18.03804865  T      -0.16779686      -0.47039858       1.33453658       0.04812131      -0.01780034      -0.05301568      -2.57506990
Sr       2.63999512       1.98561577      23.87327587  T      -1.26261788       0.85613594       1.11555913       0.01505935      -0.01516420       0.03954014      -3.66656852
Sr       8.70874596       1.79635477      11.73008633  F       0.00000000       0.00000000       0.00000000      -0.01314158      -0.14813620       0.06837961      -1.96006870
Sr       5.89206028       3.18456459      14.28748608  F       0.00000000       0.00000000       0.00000000      -0.43359143       0.06976718      -0.18565601      -2.44975543
Sr       5.89206028      18.36384964      14.28748608  F       0.00000000       0.00000000       0.00000000       0.08047651      -0.16718170      -0.10078109      -2.25022483
Sr       5.89206028       7.11266756      14.28748608  F       0.00000000       0.00000000       0.00000000      -0.06805336       0.00831781      -0.30611461      -2.55413485
Sr       8.03166008      10.94190311      15.67213917  F       0.00000000       0.00000000       0.00000000      -0.21522379      -0.12180062      -0.30371672      -2.69767976
Sr       3.62311602      10.94190311      15.44810772  F       0.00000000       0.00000000       0.00000000      -0.22705290       0.03738195      -0.02230796      -2.32274318
Sr       6.02140427      10.94190311      11.74221230  F       0.00000000       0.00000000       0.00000000       0.25130582       0.13006732       0.28385466      -1.19277501
Sr       0.61506063       8.29070448      17.66605576  T       0.94074845       0.78370253      -1.78762547       0.00212916      -0.01193801      -0.02227069      -2.32893920
Sr       4.86839403       8.04597095      17.96840868  T      -1.19371362      -0.88037191       1.03359965       0.02807678       0.02171212       0.06507295      -2.62275171
Sr       2.63858440       8.14721816      21.88419590  T      -0.14920441       0.23982168       0.24248175       0.01283628       0.01633012       0.00054676      -2.11003160
Sr      -0.59977561       9.64145434      24.68715516  T       1.52207230      -0.83676203      -0.98022211       0.05208044      -0.01693893      -0.00870776      -2.18843675
Sr      -0.46729319       5.68381820      24.41352306  T      -0.61860576      -0.40110814      -0.35183312       0.02270937       0.01637568      -0.02103308      -1.89820385
Sr      -0.02701798      13.62098292      24.27246072  T      -0.40099464       1.20935197      -0.30682061       0.00890731       0.00786325       0.01318275      -2.12733316
Sr       2.13959980      17.31103325      15.67213917  F       0.00000000       0.00000000       0.00000000      -0.09073038      -0.05520059       0.19238760      -2.21111703
Sr       6.49007116      17.13623411      20.32345056  T      -0.22988778      -0.42833073      -1.99806656      -0.02546003       0.01043051      -0.04966784      -2.18322968
Sr       0.23201505      17.29524645      21.91883873  T      -0.05638137       0.06139285      -0.21777800      -0.02212960       0.01806562       0.02506976      -2.44699693
Sr       3.75246048      14.53461266      12.90283394  F       0.00000000       0.00000000       0.00000000       0.04259937      -0.15127836       0.28687751      -1.11432719
Sr       8.16100407      14.53461266      13.12686539  F       0.00000000       0.00000000       0.00000000       0.01474432       0.08367676      -0.23431084      -2.36472082
Sr       5.67887985      14.62643486      16.54069998  T       1.61674351      -0.75997324      -0.16445639      -0.01668056       0.00283126      -0.03477883      -2.62716866
Sr       2.91269235      15.75504697      19.43009044  T       0.16010207      -1.19497754       1.22170906       0.04872547       0.02675237      -0.03512818      -2.67530346
Sr       3.03564243      11.78380063      19.63199096  T       2.70664010       0.47983894      -0.07491212       0.01692219      -0.00429862       0.01202271      -2.72871256
Sr       2.84379201       0.75303833      19.23003357  T      -1.26428051       0.08399378      -1.80678734      -0.04487618      -0.00505421      -0.08020434      -2.87302661
Ag       8.06297779       5.15946722      12.40035057  F       0.00000000       0.00000000       0.00000000       0.15472186      -0.13935424       0.17595783      -1.86441684
Ag       6.05034172       4.89677300      17.13852009  T       0.16495371      -0.82723710       0.69936087       0.04761687       0.02519792       0.00192322      -2.21955752
Ag       3.17229390       5.15946722      13.35098457  F       0.00000000       0.00000000       0.00000000       0.24136811       0.27465332       0.38012826      -1.39605367
Ag       3.59458484       1.31097154      16.05592749  T       1.54144157       1.62109465      -0.99546491       0.00952251      -0.01098678       0.00187464      -2.07541871
Ag       5.37972446       1.24068156      21.09693445  T      -1.10910438       0.23186963      -0.56144300       0.03202422       0.00577278       0.05425372      -2.03144002
Ag       8.61182594       1.20966172      15.22398853  F       0.00000000       0.00000000       0.00000000      -0.25585860       0.06580881      -0.13460214      -2.18066645
Ag       1.69074046      11.25309000      22.74330855  T       0.34690813       0.15967115      -0.29235406      -0.00664254      -0.01933515      -0.02715787      -1.81548381
Ag       0.55289922      11.57742478      17.29253453  T       1.29555786       1.72173743      -0.24515641       0.00535944       0.00754491       0.02219843      -2.02496409
Ag       5.94085344      11.52700108      18.14984139  T      -0.67518698      -1.27143862      -1.18322413      -0.01698481      -0.00529661       0.00886233      -2.19219422
Ag       5.94121332       7.43751380      20.92963370  T      -1.34956571       1.04744324      -2.36478043       0.01096999       0.02629791      -0.00805325      -1.69783163
Ag       8.21694741       7.67000607      16.64514739  T       1.25216759      -0.68625893       1.75560458       0.00120626      -0.00088931       0.02239665      -2.15272975
Ag       2.71976614       7.57879066      15.22398853  F       0.00000000       0.00000000       0.00000000       0.21411252      -0.00475293      -0.01004967      -1.91306889
Ag       5.07766331      17.82904989      17.39177998  T       1.87474138      -1.29489331       0.65125085      -0.00787137      -0.00994855       0.00499779      -2.21796322
Ag       3.58669044      17.95130275      21.74211679  T      -0.95417744      -4.21581766      -5.55713193      -0.01197881      -0.03226817       0.00296104      -2.08765125
Ag       0.24892559      17.80998700      18.49492866  T       0.95433667      -0.95161927       1.42982323       0.01777669       0.02559110      -0.01045479      -2.15777445
Ag       0.73254193      13.95459673      21.19014522  T      -1.42070073       0.48121029       0.74558860      -0.01657447       0.01019622      -0.00215875      -2.14572549
Ag       2.29477183      13.94117769      16.33440248  T       0.28736565      -0.83098646      -1.53295307       0.01921574      -0.00138712       0.00986923      -2.10244703
Ag       5.66190445      13.92590608      19.71772902  T      -0.43278865      -1.00593892       0.54182517       0.00528090       0.01096150       0.02232525      -1.96526980
N        4.26825075      19.69610684      22.89509463  T       1.15463161       3.68772106       3.44774781       0.07062616      -0.05921045       0.02522904      -6.89717627
N        4.49885907      19.67908594      24.18930020  T       0.54689373       0.52385949       1.32312184      -0.03781577       0.04238882      -0.04824597      -7.78478479
H        5.10653943      18.92028691      24.49955916  T       0.74562150       0.09598185       0.17328344       0.02531302       0.04430515      -0.02070615      -3.24968910
