50
Lattice="10.06605052947998 -0.0 -6.000000233523199e-16 2.9999999050033628e-15 10.486835479736328 4.460142135620117 -0.0 3.79999986555371e-15 31.220993041992188" Properties=species:S:1:pos:R:3:move_mask:L:1:momenta:R:3:forces:R:3:energies:R:1 adsorbate_info="_JSON {\"site\": {\"coordinates\": [5.03302526, 6.73514462, 21.65746117], \"connectivity\": 1, \"topology\": [11], \"n_vector\": [-0.15887494086001697, 0.019842333006013405, 0.9870993035088236], \"h_vector\": [1.0, 0.0, 0.0], \"site_formula\": {\"Zr\": 1}}, \"smiles\": \"Cl\", \"mdf\": 1.7019576776695893, \"adsorbate_formula\": \"HO\"}" bond_change_count=0 energy=-348.6558837890625 stress="0.00046031372039578855 1.3563184211307089e-06 -1.6984608009806834e-05 1.3563184211307089e-06 0.0004158328811172396 0.00013470942212734371 -1.6984608009806834e-05 0.00013470942212734371 0.0001430284173693508" free_energy=-348.6558837890625 pbc="T T F"
Zr       1.61250831       3.91738595      19.34741030  T      -0.26971097       2.31914940       2.93683652       0.02951050      -0.00012436       0.01444222      -9.15222168
Zr      -0.00120684       1.58086723      17.15369892  T      -0.83114870       0.06078580       1.04916438       0.00841890       0.05008619       0.00287390      -9.32019234
Zr      -0.01811957       9.09807150      19.17110405  T      -0.60105213       1.14976247       1.63797891      -0.00305587      -0.02520194      -0.03968984      -9.15994072
Zr       1.60218520       6.83588580      21.06119491  T       0.78000991      -0.85395692      -1.95048112       0.05691561      -0.05896588       0.01348108      -8.48425198
Zr       1.67767513       3.75169039      14.96724892  F       0.00000000       0.00000000       0.00000000      -0.03715025       0.14022455       0.10598961      -8.42109489
Zr      -0.00000000       1.49172723      12.73717785  F       0.00000000       0.00000000       0.00000000       0.00035174       0.10039094       0.49166101      -7.63451719
Zr      -0.00000000       8.99510765      14.96724892  F       0.00000000       0.00000000       0.00000000      -0.03783002      -0.75715476       0.51524633      -7.38106632
Zr       1.66691939       6.83101387      17.05382824  T      -1.01441766       0.24965984      -1.87759318      -0.00873626      -0.01420006      -0.02384946      -9.20978260
Zr       5.00719762       3.81046789      19.47639380  T       0.12804995       1.32093084       0.09739318      -0.01255478      -0.00468795      -0.02257553      -9.03435135
Zr       3.34064659       1.56797990      17.17653560  T      -1.18726562      -0.41537932       2.46299180       0.01220278       0.05407324      -0.01487258      -9.32427120
Zr       3.34026420       9.09519951      19.17963669  T       1.57444987       0.08852257       0.13690700       0.04144628      -0.01982426      -0.01431255      -9.15439320
Zr       5.02240816       6.71976537      21.41373397  T      -0.31746469      -2.68528087      -4.82293874      -0.05045468      -0.00601242       0.01608096      -9.31318951
Zr       5.03302526       3.75169039      14.96724892  F       0.00000000       0.00000000       0.00000000       0.03210944       0.04754546      -0.00466806      -8.41832733
Zr       3.35535026       1.49172723      12.73717785  F       0.00000000       0.00000000       0.00000000       0.00978256       0.08928636       0.49449235      -7.63106298
Zr       3.35535026       8.99510765      14.96724892  F       0.00000000       0.00000000       0.00000000       0.02709003      -0.77016604       0.52976179      -7.37726259
Zr       5.04112745       6.87166668      17.00983725  T      -0.01329286      -0.79539666      -2.46358528       0.03224671      -0.02387680      -0.01282039      -9.17680645
Zr       8.31708705       3.79688511      19.43818894  T      -0.26119409       0.08071387       2.35902891       0.02315873      -0.04754007       0.00181767      -9.06357574
Zr       6.70565585       1.50607120      17.16985947  T       0.02795316      -1.81331029      -1.21051401      -0.00271913       0.01466793       0.00761208      -9.25690651
Zr       6.70351177       9.07454927      19.25993876  T      -2.32083189       0.68738943      -1.15920478      -0.01351992      -0.00960618       0.00626577      -9.06753922
Zr       8.25556916       6.75122683      21.49914041  T       0.36734663       0.21094580      -0.98597799       0.07944191      -0.03766356      -0.02165088      -9.29353714
Zr       8.38837528       3.75169039      14.96724892  F       0.00000000       0.00000000       0.00000000      -0.05862749       0.06654829       0.04094285      -8.41327572
Zr       6.71070051       1.49172723      12.73717785  F       0.00000000       0.00000000       0.00000000      -0.02634692       0.10928878       0.53442365      -7.62105989
Zr       6.71070051       8.99510765      14.96724892  F       0.00000000       0.00000000       0.00000000      -0.02790091      -0.72843254       0.40696859      -7.36524057
Zr       8.35106798       6.88850817      16.98935843  T      -2.18380619      -0.10615481      -2.31908535      -0.01840070      -0.02543681      -0.02697922      -9.17535400
Pd       1.66156361       1.14882337      19.22444165  T       0.45958966       1.30371043      -1.25424458      -0.01895431       0.01094882      -0.02672088      -4.44663525
Pd       0.02108215       4.63757064      21.57742712  T       1.60756952       1.08014957      -0.76640145       0.01821052       0.02445737      -0.00110058      -4.36562538
Pd      -0.26940380       6.19960700      19.25053544  T      -1.83854539       0.27430894       0.29606910       0.02002005       0.01034786       0.00122479      -6.11108971
Pd       1.66171355       9.57698944      21.51946874  T      -0.33818841      -0.99760983       0.01366717      -0.00452856       0.02763737       0.01276689      -5.15951490
Pd       1.67767513       0.92763877      14.96724892  F       0.00000000       0.00000000       0.00000000      -0.00330055       0.14050326      -0.77265871      -6.14627504
Pd      -0.06020331       4.41961783      17.13363010  T      -0.92096221       0.24140047      -0.18905966      -0.00332692      -0.05093092      -0.00842662      -6.10257244
Pd      -0.00000000       6.17105627      14.96724892  F       0.00000000       0.00000000       0.00000000       0.02120135       0.51837623      -0.25618827      -4.98808861
Pd       1.67782416       9.85816335      16.92461732  T       1.90767528       3.02406052      -0.80423710       0.00206756       0.01432616      -0.00908670      -5.96962214
Pd       5.02259944       1.06066475      19.21143115  T      -0.25910396       0.60148815      -2.11414197      -0.01308553      -0.02014926      -0.01552701      -4.41959810
Pd       3.14781489       4.63666383      21.58570718  T      -1.23484101       1.32814103      -0.74113753       0.00560790       0.05033256      -0.05349668      -4.35208893
Pd       3.45876547       6.16080990      19.21670787  T      -0.59058351      -1.34479060       0.11732069       0.00252222       0.02131192       0.07156577      -6.10343409
Pd       4.85402178       9.55374839      21.49494599  T       0.17473538      -0.36426534      -0.08839258      -0.01357620      -0.00257166       0.00749201      -5.12511730
Pd       5.03302526       0.92763877      14.96724892  F       0.00000000       0.00000000       0.00000000      -0.00091739       0.13641012      -0.71790683      -6.13713551
Pd       3.38723186       4.38249425      17.11929059  T      -0.53713486      -1.60976226      -1.27624516       0.00078651      -0.04018933      -0.01141948      -6.09418535
Pd       3.35535026       6.17105627      14.96724892  F       0.00000000       0.00000000       0.00000000      -0.05181906       0.52489305      -0.20173219      -4.99003267
Pd       5.04027328       9.85128457      16.95388997  T       0.57326466       0.89290672      -3.33131336       0.01142563       0.00538170      -0.01196393      -5.98212719
Pd       8.41142475       1.05080369      19.20430986  T      -0.12743337       2.11547373      -4.57112598       0.01939032      -0.01268795      -0.02134135      -4.42853117
Pd       6.69671978       4.42015430      21.55550982  T       0.75783356       0.53358679      -1.67048780      -0.00607856      -0.00789143       0.02168799      -4.31407070
Pd       6.70105813       6.15024980      19.31631532  T      -0.78183160      -0.89654166       0.55256231      -0.05183367       0.02601289      -0.02978417      -6.08797026
Pd       8.55030386       9.54491292      21.48960488  T       2.55549521       0.32735231       0.05390407       0.02929891       0.02283120       0.02379861      -5.15246534
Pd       8.38837528       0.92763877      14.96724892  F       0.00000000       0.00000000       0.00000000      -0.06125654       0.14754505      -0.73106933      -6.13705301
Pd       6.68319299       4.36714289      17.14909380  T       1.18264718       0.18648078      -0.84088962       0.01370414      -0.00405401       0.00546317      -6.08687115
Pd       6.71070051       6.17105627      14.96724892  F       0.00000000       0.00000000       0.00000000      -0.05473848       0.37059250      -0.36889771      -5.00286627
Pd       8.37444049       9.85749450      16.95007994  T       1.55267731      -0.60255863      -2.53348470       0.00472409       0.00452624      -0.00842993      -5.97786808
O        6.60411696       6.97245919      22.82597917  T       2.39150152       0.63762659       3.02264887       0.01907796      -0.08184578       0.02638415      -8.29047585
H        6.52281527       7.55100134      23.59677838  T      -0.32047182      -0.09162970       0.39987648       0.06000043       0.02066863       0.07472533      -3.23520327
