87
Lattice="13.315120697021484 -0.0 -8.000000134899068e-16 -1.2000000467046398e-15 7.687488555908203 -2.748189687728882 -0.0 3.700000002833815e-15 30.230087280273438" Properties=species:S:1:pos:R:3:move_mask:L:1:momenta:R:3:forces:R:3:energies:R:1 adsorbate_info="_JSON {\"site\": {\"coordinates\": [4.4135553849999996, 3.854305505, 17.274335860000004], \"connectivity\": 2, \"topology\": [36, 44], \"n_vector\": [0.4964293081025187, 0.45135853612785826, 0.741507527892584], \"h_vector\": [0.10357369420059945, 0.8787107491038749, -0.4659827349580107], \"site_formula\": {\"N\": 2}}, \"smiles\": \"S1S\", \"mdf\": 1.4131608983626016, \"adsorbate_formula\": \"CHO\"}" bond_change_count=0 energy=-770.4230346679688 stress="0.0005169531214050949 1.9720006093848497e-05 4.115639967494644e-06 1.9720006093848497e-05 0.0003770533949136734 -2.9478431315510534e-05 4.115639967494644e-06 -2.9478431315510534e-05 0.000359788304194808" free_energy=-770.4230346679688 pbc="T T F"
Cr       3.56698388       4.10248101      15.24825357  T      -0.98081564      -0.53176109       1.53943610       0.02747571       0.05444509      -0.02590390     -10.23870277
Cr      10.13011836       0.12662648      17.92241065  T      -1.70737272       0.16026795      -0.68128686      -0.03048715       0.04552259       0.00654644      -9.33785629
Cr       0.92184131       4.41274095      15.20510091  T      -2.21178665       0.95991067       0.98593413       0.01109159       0.01057342      -0.00009727     -10.42879963
Cr       7.63738674       0.34433290      17.86978734  T       1.91237122       1.97706099      -0.44795122       0.01928656       0.01688218       0.01440614      -9.57019615
Cr       2.02427343       2.19984279      17.60772550  T      -1.72940061       1.91083690      -3.77173146      -0.05275145       0.05728821       0.05586916      -9.53287601
Cr       8.61670069       5.59869818      15.55278480  T      -1.02235228      -1.69850801       2.69132147       0.03856862       0.03398910      -0.03030142     -10.22183800
Cr       3.03796212       6.52409562      16.40175326  T      -1.87610211      -0.10325462      -2.70257201      -0.00585381       0.00249669       0.03093234      -8.80104065
Cr       9.46796180       2.82643215      16.96334923  T      -1.17129081       1.97157314       2.22464894       0.02634357      -0.02524404      -0.01258481     -10.43932438
Cr       5.60928158       6.46034910      16.42839620  T      -0.34045460      -0.84951912      -2.79966528      -0.05283358       0.00302321       0.06954485      -8.89999676
Cr      12.47053870       2.35608446      16.95151978  T       1.42408555      -1.71827349       2.86531525       0.02079876      -0.00493932       0.02239990     -10.50215816
Cr       4.41842693       1.12011414      16.66452477  T       0.56951695       3.21643608       3.42285566       0.02295554       0.03346008       0.00373849      -9.84744072
Cr      11.37335653       4.76540422      16.47052789  T       1.95175816      -1.94827551      -1.32283009      -0.00065121      -0.02006069       0.03277379      -9.67110825
Cr       3.51657271       4.32285738      12.46500301  F       0.00000000       0.00000000       0.00000000       0.19083965      -0.02286989      -0.07108594     -10.19861031
Cr      10.18599642       0.49537726      15.21552988  T       0.11641052      -0.32818258      -1.11287994       0.01127148       0.01146339       0.01438380     -10.25941467
Cr       0.93565130       4.34684753      12.46500301  F       0.00000000       0.00000000       0.00000000       0.03277832       0.03571433      -0.08129892     -10.29933262
Cr       7.62347953       0.50092098      15.18674352  T      -0.39464135       0.66703437      -0.04769342       0.03132093      -0.01530427      -0.00713307     -10.11164284
Cr       2.05692637       2.05948409      15.10768336  T       0.77998747       0.41081007      -0.70129696       0.01990354      -0.01787400      -0.08383223     -10.15620804
Cr       8.86289692       5.94345331      12.46500301  F       0.00000000       0.00000000       0.00000000       0.05929673      -0.11295116      -0.01316455     -10.30512047
Cr       3.07464193       6.66630110      13.72591988  T      -0.75988519       0.73758056      -1.67469564       0.00582057       0.01716676       0.00807860     -10.20792007
Cr       9.78174301       2.87031357      13.87608238  T      -1.45188794      -0.92558869      -0.65179898       0.01177067      -0.01177597       0.00114825     -10.23370647
Cr       5.72288691       6.61003218      13.72373534  T       0.36044093      -1.40917310      -1.60026904      -0.00373143       0.02079302      -0.02783386     -10.08279324
Cr      12.38436801       2.77282411      13.85955345  T      -0.52941997      -0.34724766      -0.47242096      -0.00873995       0.01133144      -0.00769907     -10.27799988
Cr       4.48877443       1.19370890      13.71680156  T       1.34093622       0.38968592       0.10332520      -0.02995816       0.00664598       0.04022956     -10.39887714
Cr      11.04726755       5.05063304      13.78205374  T      -0.08771985       0.22403121      -0.03083023      -0.00138986      -0.00019026       0.00088856     -10.26136017
Cr       3.51657271       4.32285738       9.71681404  F       0.00000000       0.00000000       0.00000000      -0.08332998       0.92452306       0.87922418      -8.79679871
Cr      10.17413330       0.47911340      12.46500301  F       0.00000000       0.00000000       0.00000000       1.96301591      -0.28017303      -0.23995924     -10.06955910
Cr       0.93565130       4.34684753       9.71681404  F       0.00000000       0.00000000       0.00000000       0.66299802       2.14137506       1.31033099      -8.67134476
Cr       7.59321165       0.50310314      12.46500301  F       0.00000000       0.00000000       0.00000000      -2.50907660       1.03159618      -1.26214600     -10.14390182
Cr       2.20533633       2.09970903      12.46500301  F       0.00000000       0.00000000       0.00000000      -0.41975266      -1.86689317      -2.37924266     -10.46002579
Cr       8.86289692       5.94345331       9.71681404  F       0.00000000       0.00000000       0.00000000      -0.94108337      -0.42589542       1.53473759      -8.98230934
Cr       3.14098763       6.70049572      11.09090900  F       0.00000000       0.00000000       0.00000000      -0.53170156      -0.07083409      -1.76664650     -10.45000267
Cr       9.79854774       2.85675168      11.09090900  F       0.00000000       0.00000000       0.00000000      -0.58718485      -0.57969964       1.52162695      -8.89519596
Cr       5.72190905       6.67650604      11.09090900  F       0.00000000       0.00000000       0.00000000       0.46055463      -0.58796585      -1.64838243     -10.49600124
Cr      12.37946892       2.83276200      11.09090900  F       0.00000000       0.00000000       0.00000000      -0.06635881      -1.31418407       1.66740012      -8.98797321
Cr       4.45222378       1.23615611      11.09090900  F       0.00000000       0.00000000       0.00000000       0.95966136      -1.40439630       1.55955660      -9.36746025
Cr      11.10978413       5.07990026      11.09090900  F       0.00000000       0.00000000       0.00000000       0.40144354       2.12347841      -0.08533241      -9.88098145
N        3.66057263       2.34536128      18.33282134  T      -1.15206624       0.53994029      -0.73710788      -0.04847527      -0.05705985      -0.03727222      -8.44024658
N       10.90012187       6.24044175      15.38780229  T      -0.02773337      -0.28651139       0.16666426       0.00274140       0.04020408       0.01591562      -8.57532787
N        1.87841468       6.07323175      15.14658006  T       0.20109077       0.49284936       0.11971364       0.04453558      -0.00181659      -0.00520977      -8.29532814
N        8.55818266       1.92773595      18.06247682  T       0.31605624      -0.64112761      -0.69379629       0.00687397       0.03189957      -0.00678200      -7.77487659
N        0.32190076       1.94026716      18.11982196  T       0.96224570      -0.51664058      -1.00164382       0.00373280       0.04514357      -0.01411521      -7.68996191
N        6.80594332       5.92504832      15.18526912  T      -0.28957367       0.35054593       0.25836934       0.03442157       0.00106648      -0.02110824      -8.74564266
N        2.41899437       0.80972695      16.52771948  T       0.53262255       0.31398081       0.31428431       0.01965748      -0.08077431       0.00036113      -8.60083389
N        8.68954324       4.34238597      16.69736395  T       0.27783586      -0.14254277      -1.41624904      -0.00873911       0.02439072       0.02540141      -8.05999851
N        4.40652985       5.16936278      16.60599470  T      -0.71454713       2.01653165      -2.88125737       0.03354102      -0.00901103       0.00105971      -7.99652386
N       11.28728557       1.02794152      16.74569572  T      -0.11530915      -0.18374153       0.15857722      -0.01902133      -0.01928011       0.00259947      -8.45346451
N        6.32708390       0.81335989      16.62835486  T       0.27818859      -0.48730136       0.15939766       0.01074992       0.00947270       0.05007328      -8.56823349
N       13.03751735       4.87383749      16.49537084  T      -0.86192510      -0.23086810      -1.38216711      -0.00959864      -0.00651789       0.00986511      -7.61350918
N        4.38378654       7.48468966      15.54577808  T       0.03443724       0.41841068       0.36826961       0.01971507       0.02612731      -0.00777215      -8.56787872
N       11.09685479       3.44855925      17.75714023  T       0.28354800       0.52311580      -1.88048270       0.00158006       0.04164620      -0.01872134      -7.57501125
N        2.17422238       3.59139277      16.44538027  T       0.25157269      -0.65490923      -1.31204053      -0.01010604       0.06740151       0.00865752      -8.31080151
N        8.76255302       7.23686519      16.43625089  T      -0.05262815       0.18083638      -2.54809442       0.00618423       0.03896528       0.00380778      -7.41198111
N        4.30963300       2.44282539      15.27477751  T      -0.76058321      -0.37449230       0.07889091       0.04366034      -0.00226060      -0.01914063      -8.14742661
N       10.91840553       6.40247297      12.46500301  F       0.00000000       0.00000000       0.00000000      -0.02815762      -0.93888038      -0.27807248      -8.28765297
N        2.09129524       5.87347078      12.46500301  F       0.00000000       0.00000000       0.00000000       0.16867536       0.02822667      -0.61475325      -8.39180565
N        8.88874851       1.97455596      15.28839095  T       0.53859137       0.00927207      -0.20001881       0.02314353       0.01171052      -0.01527112      -8.37963772
N        0.20095834       2.27115520      15.24785580  T      -0.75511112       0.91290771      -0.21930905       0.00456576       0.03352866      -0.01432654      -8.28601742
N        6.96297979       6.18095827      12.46500301  F       0.00000000       0.00000000       0.00000000      -0.31664094       0.05449161      -0.25331801      -8.34331608
N        2.46970634       0.82358109      13.80220014  T       0.56470422       0.71682137      -0.04337509       0.01472825       0.02963760       0.04271092      -8.43777943
N        9.09994500       4.68513717      13.89123112  T       0.12806120       0.68983319      -0.17337000      -0.00527072       0.04546942       0.01427132      -8.31131172
N        4.37276194       5.22878112      13.89845472  T      -1.06013751       0.02585910      -0.06989184       0.00092945       0.00455169      -0.04336944      -8.50690556
N       11.14399396       1.27008098      13.80444416  T      -0.96516873      -0.20146836      -0.43236835       0.00421646      -0.01284245       0.00321336      -8.40055561
N        6.42812900       0.95183000      13.81682177  T       0.89870881      -0.40954888      -0.49923867      -0.01585963      -0.02361041       0.01078039      -8.45171356
N       13.03004530       4.75414126      13.79163043  T       0.16009449      -0.53241038      -0.33049489       0.00140280       0.01092961       0.02773677      -8.16975594
N        4.43837357       7.43354893      12.46500301  F       0.00000000       0.00000000       0.00000000      -0.17891656      -0.03615709       0.44355142      -9.01301575
N       11.11254336       3.57048840      15.10395149  T       0.05202263      -0.01979378      -0.83583703       0.01697164      -0.01615638       0.03862062      -8.74568748
N        2.22513760       3.58261349      13.82828076  T       0.25267792       0.11406902      -0.18811745      -0.00455920      -0.03047044      -0.02458364      -8.97989845
N        8.85357858       7.40747070      13.83577269  T      -0.16579229       0.11464820      -0.13170127       0.05364295       0.03690850      -0.01663494      -9.04949188
N        4.26084566       2.55872869      12.46500301  F       0.00000000       0.00000000       0.00000000      -0.05461758      -0.47937128      -0.63875508      -8.55284405
N       10.91840553       6.40247297       9.71681404  F       0.00000000       0.00000000       0.00000000      -1.79063404      -0.23045683       0.75203985      -7.57919216
N        2.09129524       5.87347078       9.71681404  F       0.00000000       0.00000000       0.00000000       0.40689251      -2.36831093       0.89693207      -7.44468498
N        8.74885559       2.02972674      12.46500301  F       0.00000000       0.00000000       0.00000000       0.74587780      -0.14809544      -0.82249361      -8.63429642
N        0.30541945       2.33721423      12.46500301  F       0.00000000       0.00000000       0.00000000      -0.53432292       0.43865758      -0.59335780      -8.42864132
N        6.96297979       6.18095827       9.71681404  F       0.00000000       0.00000000       0.00000000       1.62602925       0.93897998       0.49534953      -7.35897350
N        2.39671469       0.77713639      11.09090900  F       0.00000000       0.00000000       0.00000000       2.16362381       2.28132415       1.87658310      -5.72662973
N        9.05427456       4.62088060      11.09090900  F       0.00000000       0.00000000       0.00000000       0.39959216       0.24859986      -0.88333887      -8.84243202
N        4.56626511       5.14988232      11.09090900  F       0.00000000       0.00000000       0.00000000      -0.56593275      -0.44243240      -0.25860614      -8.52159595
N       11.22382545       1.30613840      11.09090900  F       0.00000000       0.00000000       0.00000000      -0.58912975       1.64839387       0.43151385      -7.67832088
N        6.35214090       0.99865079      11.09090900  F       0.00000000       0.00000000       0.00000000      -1.17502046      -0.33913636       1.58366966      -6.76579237
N       13.00970078       4.84239483      11.09090900  F       0.00000000       0.00000000       0.00000000      -0.03521765      -1.25292170      -0.77731532      -8.85905170
N        4.43837357       7.43354893       9.71681404  F       0.00000000       0.00000000       0.00000000      -0.13735703       0.82053632       0.89177471      -7.68699646
N       11.09593391       3.58980465      12.46500301  F       0.00000000       0.00000000       0.00000000      -0.13256952      -0.26431698      -1.65277123      -9.26315689
N        2.21918678       3.58980465      11.09090900  F       0.00000000       0.00000000       0.00000000      -0.06523015       0.40280700      -0.82592565      -8.86456490
N        8.87674713       7.43354893      11.09090900  F       0.00000000       0.00000000       0.00000000       0.12038139      -0.38127673      -0.92934787      -9.23380089
C        4.35506242       3.02918779      19.23739674  T      -2.01366642      -3.89173285       1.02239302       0.02279961       0.01702714       0.07025123      -9.36340714
O        3.88808104       3.75155739      20.14126168  T       0.75432296      -1.48355487       2.23314264       0.06515765      -0.04324424       0.00227880      -6.07061005
H        5.46313849       2.88866799      19.12728810  T      -0.45693361      -0.10670517       0.44409904       0.00704271      -0.01421398       0.04217279      -3.48020840
