87
Lattice="13.315120697021484 -0.0 -8.000000134899068e-16 -1.2000000467046398e-15 7.687488555908203 -2.748189687728882 -0.0 3.700000002833815e-15 30.230087280273438" Properties=species:S:1:pos:R:3:move_mask:L:1:momenta:R:3:forces:R:3:energies:R:1 adsorbate_info="_JSON {\"site\": {\"coordinates\": [6.657560349999996, 7.4335488679541015, 15.900241016135558], \"connectivity\": 2, \"topology\": [3, 8], \"n_vector\": [-0.11168250339897129, 0.8223739527158754, 0.55787821281083], \"h_vector\": [0.6751443284120552, 0.5462645877350207, -0.49575713408858046], \"site_formula\": {\"Cr\": 2}}, \"smiles\": \"S1S\", \"mdf\": 1.599397967244336, \"adsorbate_formula\": \"CHO\"}" bond_change_count=0 energy=-768.900634765625 stress="0.0005927488091401756 2.1012827346567065e-05 4.394682764541358e-05 2.1012827346567065e-05 0.00042043719440698624 -4.5562401282950304e-06 4.394682764541358e-05 -4.5562401282950304e-06 0.000404701306251809" free_energy=-768.900634765625 pbc="T T F"
Cr       3.66118746       4.09299602      15.26849565  T       1.86009569      -1.10823269       2.62354076      -0.01757640      -0.01099195      -0.00658423     -10.19634438
Cr      10.17072043       0.16145542      17.89848715  T      -0.54313807      -0.46232427      -1.30275307      -0.01493931       0.03344908      -0.04455811      -9.31126976
Cr       0.95843404       4.47894125      15.22068898  T      -0.72216147       0.17216452       3.28544960      -0.02254084      -0.01939595      -0.01893505     -10.43028736
Cr       7.67659369       0.34511709      17.86424298  T       2.95882982       0.08784163       0.20235689       0.04400613       0.02298892       0.01987463      -9.71413898
Cr       2.14720143       2.21978392      17.57718033  T      -2.17118297       1.90740222      -2.80089023      -0.00951266       0.00119913       0.03353941      -9.84512901
Cr       8.66484798       5.65507954      15.55791320  T      -0.18041876      -1.08741129       3.24144305      -0.01406087      -0.05665608       0.01619494     -10.15108871
Cr       3.10348823       6.46180746      16.39689244  T      -0.55214563      -2.19551451      -0.39487797       0.00670855       0.00167656      -0.01789969      -8.76018333
Cr       9.53047056       2.84233398      16.94745600  T      -1.95720900       0.85865895       2.52579136      -0.00816685       0.02019222       0.02927688     -10.44421482
Cr       5.64854412       6.56759851      16.46425172  T      -1.09020664      -3.38691595      -4.85904689       0.01202753      -0.02429849      -0.02185771      -9.37545204
Cr      12.54294395       2.39332351      16.97052262  T       3.42479692      -0.17207723       3.85104325       0.02605475      -0.02814156       0.07482326     -10.45108700
Cr       4.43332050       1.16310778      16.72398657  T      -0.05169626       0.92540565       2.60237973      -0.00184602       0.01731414       0.00702241     -10.02183914
Cr      11.39561110       4.78426579      16.47385263  T      -0.01707668      -1.38058330      -1.63917789       0.00203884       0.00958690       0.01232904      -9.65754128
Cr       3.51657271       4.32285738      12.46500301  F       0.00000000       0.00000000       0.00000000       0.25781560      -0.01305338      -0.06200968     -10.22840500
Cr      10.21680266       0.51228336      15.23071851  T       1.03420485      -0.00336171       0.22525212      -0.00473732      -0.00113451       0.01546743     -10.25742340
Cr       0.93565130       4.34684753      12.46500301  F       0.00000000       0.00000000       0.00000000       0.09890310       0.05031300      -0.07545719     -10.31146049
Cr       7.63979385       0.52761059      15.19333959  T      -1.71504089       0.67337202       0.50844594       0.01066774      -0.02904832      -0.03145022     -10.09361649
Cr       2.05382279       2.08907121      15.08862417  T      -0.34703393      -1.48437239       0.30558026      -0.01559305       0.01015508       0.02476081     -10.16943264
Cr       8.86289692       5.94345331      12.46500301  F       0.00000000       0.00000000       0.00000000       0.06216192      -0.08179104      -0.03964785     -10.30471325
Cr       3.07856874       6.68605682      13.71283637  T      -0.11975264       0.65580703      -0.20975451      -0.00598073       0.00231624       0.01704840     -10.24498749
Cr       9.80318621       2.87894585      13.87179788  T       0.05333390      -0.79169704       0.06844939      -0.02014309      -0.01147675       0.00238313     -10.24439812
Cr       5.74031558       6.63861823      13.72611957  T       0.04619243       0.36418741      -0.12895068       0.00399606       0.00710511       0.02617224     -10.08785629
Cr      12.39129002       2.79228643      13.85758196  T       1.65985856      -0.83294552      -0.26005594      -0.00729218       0.00979775      -0.01224697     -10.28699493
Cr       4.47857252       1.18917733      13.72804221  T       1.10012562       0.99911325      -0.90036286       0.02855456      -0.01832864      -0.01088926     -10.42947960
Cr      11.05631342       5.06102444      13.78907258  T      -2.43476847      -0.04983637       0.56635658       0.00324008      -0.01479128      -0.00980850     -10.26577663
Cr       3.51657271       4.32285738       9.71681404  F       0.00000000       0.00000000       0.00000000      -0.08382963       0.93238139       0.89269316      -8.79615307
Cr      10.17413330       0.47911340      12.46500301  F       0.00000000       0.00000000       0.00000000       1.96555722      -0.27497488      -0.19115877     -10.07513046
Cr       0.93565130       4.34684753       9.71681404  F       0.00000000       0.00000000       0.00000000       0.66993010       2.14021873       1.30775821      -8.66932678
Cr       7.59321165       0.50310314      12.46500301  F       0.00000000       0.00000000       0.00000000      -2.50404096       1.02855480      -1.22465992     -10.15600204
Cr       2.20533633       2.09970903      12.46500301  F       0.00000000       0.00000000       0.00000000      -0.41045243      -1.78878260      -2.42809820     -10.45367146
Cr       8.86289692       5.94345331       9.71681404  F       0.00000000       0.00000000       0.00000000      -0.95783651      -0.40465876       1.56511378      -8.98520470
Cr       3.14098763       6.70049572      11.09090900  F       0.00000000       0.00000000       0.00000000      -0.46588796      -0.07571580      -1.74187779     -10.43309689
Cr       9.79854774       2.85675168      11.09090900  F       0.00000000       0.00000000       0.00000000      -0.60637075      -0.59483314       1.53330612      -8.89739990
Cr       5.72190905       6.67650604      11.09090900  F       0.00000000       0.00000000       0.00000000       0.44559246      -0.54214787      -1.60201180     -10.50941753
Cr      12.37946892       2.83276200      11.09090900  F       0.00000000       0.00000000       0.00000000      -0.06145306      -1.32285702       1.67238998      -8.98549843
Cr       4.45222378       1.23615611      11.09090900  F       0.00000000       0.00000000       0.00000000       0.98324370      -1.39560211       1.61607563      -9.37631130
Cr      11.10978413       5.07990026      11.09090900  F       0.00000000       0.00000000       0.00000000       0.40123940       2.13376641      -0.08304985      -9.88458443
N        3.70991554       2.14425123      18.20891344  T      -2.26414371      -1.78605912      -0.48965548      -0.00602913       0.00192127      -0.01587367      -7.03366804
N       10.92705030       6.26706064      15.38675921  T       0.23787533      -0.20437248       0.18810576       0.05379230      -0.00998071      -0.03775798      -8.55778027
N        1.88202427       6.12182406      15.14832691  T       0.41523239       0.47095231       0.48806621       0.02633965       0.00343548      -0.01590873      -8.26160526
N        8.61628677       1.96559639      18.04257524  T       0.39442806      -0.54441951      -1.63432048      -0.01338384       0.00035065      -0.00726008      -7.73479366
N        0.42239918       2.01592691      18.12085354  T       1.54620695       0.30577211      -1.68337732      -0.02332675       0.01384765      -0.05647302      -7.65213394
N        6.84662276       6.05566576      15.22528958  T      -0.16018697       0.71687737       0.83092128      -0.01956294       0.02769375       0.04896703      -8.77025795
N        2.38601693       0.80400332      16.46300307  T       0.31791089       0.06885577       0.69524504       0.01313370      -0.07192850       0.04064742      -8.43838787
N        8.77744198       4.38735699      16.69253012  T       0.67420270       0.16885359      -1.06983122      -0.01397580       0.00796719      -0.02702469      -8.03304100
N        4.46699277       5.15840940      16.57723681  T      -0.17644297       1.27497192      -0.72562167      -0.01018676       0.01537126      -0.00849688      -7.99578333
N       11.32943765       1.05912397      16.73487453  T      -0.33839746      -0.53997982       0.15033584      -0.00742418       0.00383618       0.00050125      -8.46081829
N        6.34051021       0.83077304      16.64802483  T      -0.45832109      -0.75327671       0.27913302       0.00273208      -0.02784482      -0.02618345      -8.53406334
N       13.06862557       4.88923466      16.49794283  T      -0.86233451      -0.25670892      -1.46224877      -0.00900044       0.01355052      -0.01384681      -7.65037537
N        4.37986469       7.46757656      15.55356945  T      -0.07926948      -0.73619900       0.89115718       0.02476254      -0.01907569       0.01011753      -8.64667606
N       11.15917563       3.46872296      17.76563248  T       0.36936120       0.50561978      -1.86096784      -0.01517256       0.00261009      -0.01431882      -7.55790710
N        2.22125751       3.65043856      16.42147864  T       0.43997249      -0.45553619      -1.18387573      -0.01692753      -0.01400501      -0.00108290      -8.38932037
N        8.85248014       7.29490107      16.43128140  T       1.02245536       0.13757833      -3.20259200      -0.01352012       0.01760879      -0.02744126      -7.25963449
N        4.37762750       2.45609254      15.26035073  T      -0.10109586      -0.64372978      -0.06725436      -0.00065789      -0.01757681      -0.01627626      -8.17737103
N       10.91840553       6.40247297      12.46500301  F       0.00000000       0.00000000       0.00000000       0.02060479      -0.87518775      -0.32066664      -8.29023075
N        2.09129524       5.87347078      12.46500301  F       0.00000000       0.00000000       0.00000000       0.22191709       0.07687695      -0.61202842      -8.39704037
N        8.90625679       1.98992066      15.28493565  T       0.74466978      -0.30462536      -0.29265529       0.00630236       0.01287040      -0.01678585      -8.36740971
N        0.21630149       2.29864579      15.24305043  T      -0.38150040       0.43821658      -0.28557283       0.00903081       0.01890078      -0.00660380      -8.29896927
N        6.96297979       6.18095827      12.46500301  F       0.00000000       0.00000000       0.00000000      -0.26371169       0.05848059      -0.14905620      -8.33226204
N        2.48230322       0.83946026      13.80659957  T       0.53831269       0.85238643      -0.05791724       0.00222617      -0.04520985      -0.01848486      -8.45905876
N        9.11173265       4.71076821      13.90675283  T       0.45817278       1.02482685      -0.01866925       0.01307186      -0.01562160      -0.02170734      -8.29889774
N        4.39946558       5.23485033      13.88614792  T      -0.93154803      -0.02194223      -0.04455928      -0.00567943       0.01052839       0.01314899      -8.44400311
N       11.15163820       1.27860670      13.80125387  T      -0.96666448      -0.18535715      -0.40329370      -0.01032424      -0.00040975      -0.01816300      -8.39047909
N        6.43024230       0.94090075      13.82074161  T       0.45004201      -0.02064682      -0.37804010       0.02709284       0.00302178      -0.00025113      -8.44022083
N       13.04464668       4.76130283      13.79643776  T       0.57323662      -1.09784247      -0.08725750      -0.03500457       0.00728956       0.02983157      -8.17097378
N        4.43837357       7.43354893      12.46500301  F       0.00000000       0.00000000       0.00000000      -0.04439734       0.10858609       0.41752183      -8.95598412
N       11.12670877       3.58843723      15.11144405  T       0.10567390       0.23371003      -0.80422653      -0.01780459      -0.03773437      -0.03560376      -8.75543976
N        2.24703764       3.59514826      13.81930724  T       0.13202500      -0.04753083      -0.19638623      -0.04172115      -0.01201247       0.01571681      -8.93149376
N        8.88689928       7.42940272      13.81079703  T       0.20533967       0.00295288      -0.14932644      -0.03204177       0.02299646       0.02802381      -9.07634163
N        4.26084566       2.55872869      12.46500301  F       0.00000000       0.00000000       0.00000000      -0.05034843      -0.52343827      -0.65183556      -8.51222515
N       10.91840553       6.40247297       9.71681404  F       0.00000000       0.00000000       0.00000000      -1.79925191      -0.22139670       0.76426136      -7.58131838
N        2.09129524       5.87347078       9.71681404  F       0.00000000       0.00000000       0.00000000       0.40929914      -2.35623789       0.90937382      -7.44744730
N        8.74885559       2.02972674      12.46500301  F       0.00000000       0.00000000       0.00000000       0.80340159      -0.10538170      -0.78751045      -8.61874962
N        0.30541945       2.33721423      12.46500301  F       0.00000000       0.00000000       0.00000000      -0.51198745       0.45582247      -0.59220999      -8.43576813
N        6.96297979       6.18095827       9.71681404  F       0.00000000       0.00000000       0.00000000       1.64583182       0.94488496       0.50444144      -7.35329008
N        2.39671469       0.77713639      11.09090900  F       0.00000000       0.00000000       0.00000000       2.16245699       2.29186273       1.88306093      -5.72538614
N        9.05427456       4.62088060      11.09090900  F       0.00000000       0.00000000       0.00000000       0.39832360       0.25197485      -0.85849553      -8.84604073
N        4.56626511       5.14988232      11.09090900  F       0.00000000       0.00000000       0.00000000      -0.56919450      -0.42767483      -0.30621433      -8.51945210
N       11.22382545       1.30613840      11.09090900  F       0.00000000       0.00000000       0.00000000      -0.58624494       1.65737224       0.43321568      -7.67666626
N        6.35214090       0.99865079      11.09090900  F       0.00000000       0.00000000       0.00000000      -1.19071960      -0.33892566       1.59275746      -6.76186228
N       13.00970078       4.84239483      11.09090900  F       0.00000000       0.00000000       0.00000000      -0.03686997      -1.25364780      -0.76581824      -8.85660934
N        4.43837357       7.43354893       9.71681404  F       0.00000000       0.00000000       0.00000000      -0.15525034       0.79527444       0.90242630      -7.67617846
N       11.09593391       3.58980465      12.46500301  F       0.00000000       0.00000000       0.00000000      -0.09528352      -0.16747929      -1.59765673      -9.28239918
N        2.21918678       3.58980465      11.09090900  F       0.00000000       0.00000000       0.00000000      -0.06898288       0.39710301      -0.86048365      -8.86027718
N        8.87674713       7.43354893      11.09090900  F       0.00000000       0.00000000       0.00000000       0.17088899      -0.32533908      -0.96833336      -9.19078541
C        6.37645894       8.29232712      17.74839949  T      -0.02893430       0.60189823       2.29049556      -0.07372639      -0.00353867       0.00358748      -7.10428858
O        6.45614949       8.05123776      18.91787122  T      -0.79379713       1.76099718       0.82526554      -0.03468674      -0.04677385      -0.02573776      -7.39331198
H        6.52422460       9.23862148      17.12418610  T       1.60199736       0.92732731       0.04902972      -0.02828620      -0.01795122       0.03996029      -3.79086423
