87
Lattice="13.315120697021484 -0.0 -8.000000134899068e-16 -1.2000000467046398e-15 7.687488555908203 -2.748189687728882 -0.0 3.700000002833815e-15 30.230087280273438" Properties=species:S:1:pos:R:3:move_mask:L:1:momenta:R:3:forces:R:3:energies:R:1 adsorbate_info="_JSON {\"site\": {\"coordinates\": [1.2553778899999997, 2.21846163, 17.961383820000002], \"connectivity\": 2, \"topology\": [4, 40], \"n_vector\": [0.04941633207447507, 0.17497315735752003, 0.9833323041213717], \"h_vector\": [0.9922768745583174, -0.1240427515688728, 0.0], \"site_formula\": {\"Cr\": 1, \"N\": 1}}, \"smiles\": \"S1S\", \"mdf\": 1.3385443480493349, \"adsorbate_formula\": \"CHO\"}" bond_change_count=0 energy=-770.141357421875 stress="0.0005180985317565501 2.6311752662877552e-05 2.3014978069113567e-05 2.6311752662877552e-05 0.0003898884169757366 -2.152410161215812e-05 2.3014978069113567e-05 -2.152410161215812e-05 0.0003743533743545413" free_energy=-770.141357421875 pbc="T T F"
Cr       3.63174349       4.06490169      15.23669365  T       0.32496204      -0.92694426       1.31274729       0.01190990      -0.02939086      -0.03112041     -10.23402214
Cr      10.12385762       0.16720170      17.89408658  T       0.08612499      -1.12052979      -1.29584375       0.05835429       0.02861015       0.01204312      -9.36251068
Cr       0.94672833       4.44225471      15.21893109  T      -0.86861635       0.77243726       2.72737900      -0.00342536       0.01538649      -0.01386669     -10.40800285
Cr       7.64411376       0.35223007      17.88384085  T       2.76525390       0.24478005      -1.03200722       0.00732293      -0.00230598      -0.01473141      -9.55615520
Cr       2.26559948       2.23639013      17.60871612  T       2.98670545       2.08836091      -7.67617564      -0.02826437      -0.01596757       0.00033939      -9.75178528
Cr       8.64474659       5.62117879      15.54950308  T      -0.44672125      -1.67326613       3.09010326      -0.02047091       0.01984695      -0.00946477     -10.22240448
Cr       3.08369972       6.46455042      16.39415500  T      -0.22166109      -0.09410712      -0.51456810      -0.01342834      -0.01283067      -0.04710156      -8.80898762
Cr       9.48201777       2.83652406      16.96369352  T      -1.38786149       0.33094242       1.63110228      -0.04116705       0.00251384      -0.02601373     -10.43109512
Cr       5.65390410       6.46651249      16.46129912  T      -1.10434964      -2.84999676      -2.40629838       0.00432925      -0.02513090      -0.05063610      -8.97587013
Cr      12.44119963       2.49759219      16.91293995  T       1.75934354      -0.36442556       2.48669295      -0.03710674      -0.00922763       0.00744852     -10.16883755
Cr       4.48417196       1.16369440      16.72095917  T       0.77573361       0.93632483       3.15614258      -0.01296231      -0.02549094      -0.04696855     -10.01776695
Cr      11.34650999       4.80807212      16.46056735  T       0.55651652      -2.15315568      -0.21083219       0.02027653       0.00717142      -0.02372593      -9.58510685
Cr       3.51657271       4.32285738      12.46500301  F       0.00000000       0.00000000       0.00000000       0.19807065      -0.07939412      -0.10100599     -10.21651554
Cr      10.20088187       0.49905539      15.21131379  T       0.27515282      -0.09878871       0.20012097       0.00532287       0.04838003       0.03286956     -10.25290775
Cr       0.93565130       4.34684753      12.46500301  F       0.00000000       0.00000000       0.00000000       0.08405745       0.02175730      -0.08737196     -10.29669094
Cr       7.64053088       0.50786522      15.17539746  T      -0.51258753       0.24095004      -0.30620570      -0.03270063       0.00767517       0.01593487     -10.12041664
Cr       2.01404146       2.05675230      15.11366257  T       1.02652545      -0.10842648      -0.88984627       0.04455164       0.02605295       0.00800829     -10.13788128
Cr       8.86289692       5.94345331      12.46500301  F       0.00000000       0.00000000       0.00000000       0.05512846      -0.08223879      -0.04051991     -10.30169773
Cr       3.07047734       6.69215519      13.71543079  T       0.66864087      -0.71946847      -1.28068522       0.02173740      -0.03423009       0.00941273     -10.23539734
Cr       9.78903659       2.87312173      13.87883193  T      -1.26989352       0.09092630       1.76401279       0.01534301      -0.00028741      -0.03003998     -10.24462318
Cr       5.72370371       6.62193278      13.71827406  T       0.56726191      -1.47726116      -1.27142534       0.00683162       0.03081453       0.01360793     -10.10363197
Cr      12.39576285       2.79839754      13.85573076  T      -0.20619813      -1.13069182       0.28448582      -0.00244069      -0.00540191      -0.01527542     -10.29870415
Cr       4.47135238       1.18069434      13.72372696  T       0.46610644       0.53953877      -0.15900440       0.03287610       0.06670099       0.00847337     -10.44726372
Cr      11.05431199       5.05060963      13.79381402  T       0.15448534      -0.77839377      -0.29124857      -0.01526845       0.02284914      -0.02155073     -10.27051926
Cr       3.51657271       4.32285738       9.71681404  F       0.00000000       0.00000000       0.00000000      -0.08609012       0.92936772       0.88661754      -8.79612160
Cr      10.17413330       0.47911340      12.46500301  F       0.00000000       0.00000000       0.00000000       1.99436891      -0.26048559      -0.24001130     -10.08411217
Cr       0.93565130       4.34684753       9.71681404  F       0.00000000       0.00000000       0.00000000       0.67025751       2.14360785       1.30854380      -8.67148018
Cr       7.59321165       0.50310314      12.46500301  F       0.00000000       0.00000000       0.00000000      -2.52028990       1.03739917      -1.27420068     -10.15190792
Cr       2.20533633       2.09970903      12.46500301  F       0.00000000       0.00000000       0.00000000      -0.42085868      -1.83348966      -2.39949417     -10.46343136
Cr       8.86289692       5.94345331       9.71681404  F       0.00000000       0.00000000       0.00000000      -0.94623262      -0.44002968       1.53278232      -8.97951698
Cr       3.14098763       6.70049572      11.09090900  F       0.00000000       0.00000000       0.00000000      -0.49408427      -0.07422953      -1.71411157     -10.43813515
Cr       9.79854774       2.85675168      11.09090900  F       0.00000000       0.00000000       0.00000000      -0.58642805      -0.58842093       1.54042244      -8.89720058
Cr       5.72190905       6.67650604      11.09090900  F       0.00000000       0.00000000       0.00000000       0.44567868      -0.56983662      -1.60579550     -10.50081730
Cr      12.37946892       2.83276200      11.09090900  F       0.00000000       0.00000000       0.00000000      -0.07569893      -1.33063221       1.67558002      -8.99015236
Cr       4.45222378       1.23615611      11.09090900  F       0.00000000       0.00000000       0.00000000       0.97861052      -1.37814462       1.59542251      -9.37279987
Cr      11.10978413       5.07990026      11.09090900  F       0.00000000       0.00000000       0.00000000       0.40634829       2.11992550      -0.08535513      -9.88828754
N        3.85696898       2.19427876      18.14603594  T      -2.10876152      -2.42288624      -1.01518955       0.06153554       0.00293940      -0.00764418      -7.10019016
N       10.91147802       6.26599008      15.35126973  T       0.66329632      -0.56666294       0.34962502       0.03115004      -0.01331288       0.02508668      -8.57366848
N        1.88342918       6.08679947      15.13964128  T       0.60183455       0.50575831       0.43194558       0.04362845       0.01217650       0.08593293      -8.27528286
N        8.56668275       1.94800314      18.06746714  T       0.33271382      -0.89638670      -1.02047017       0.00723045       0.00902700      -0.05033761      -7.76787424
N        0.51911098       2.35633656      18.34357720  T       2.86571542      -0.52811874       1.85856388       0.01265162      -0.02416191       0.03466286      -8.42991734
N        6.83519886       5.96812263      15.18320900  T      -0.44021111       0.23331160       0.57853061      -0.02542544       0.06165558       0.01775385      -8.74979305
N        2.34498467       0.79533518      16.51756395  T       0.30714083      -0.61735204      -0.14948200       0.01972747       0.08062249      -0.00202059      -8.44061756
N        8.71052668       4.36238824      16.69176272  T       1.29890776       0.27865168      -0.97811635       0.01048785       0.03743035      -0.03806490      -8.05890083
N        4.49336541       5.12821551      16.54313063  T      -0.77004767       1.86081025      -0.66478408      -0.01273254       0.01831354       0.07637256      -8.07063103
N       11.28566299       1.10284276      16.75215987  T      -0.31147780      -0.48220563       0.32581295       0.02111995       0.04427807      -0.00943632      -8.42671585
N        6.34826752       0.81297706      16.62166867  T       0.14541411      -0.62671586       0.14265059      -0.00336090       0.01357424       0.02776236      -8.63293457
N       13.02585388       4.85952581      16.48866957  T      -0.53986704      -0.41794429      -1.46436271      -0.00732410      -0.03867111       0.02622926      -7.63413239
N        4.40798528       7.43854237      15.55580023  T       0.18432732      -0.34496109       0.83658664       0.00785026       0.01890916      -0.01087523      -8.62163258
N       11.07624241       3.52013408      17.78112703  T       0.48483410       0.37810726      -1.96724095       0.02703898      -0.01372900      -0.02650726      -7.57536364
N        2.20858147       3.61517885      16.41582875  T       0.03870845      -0.41578742      -1.97091245       0.00729414      -0.00428194       0.01711467      -8.41576290
N        8.80255951       7.25740031      16.43485460  T       0.10076647       0.15516861      -2.19108689      -0.01604795       0.06198835       0.02945399      -7.41683102
N        4.38728036       2.43944847      15.25753003  T       0.04293450      -1.06501273      -0.16526382      -0.02495170       0.02630875      -0.03649857      -8.12806797
N       10.91840553       6.40247297      12.46500301  F       0.00000000       0.00000000       0.00000000      -0.00421849      -0.93281794      -0.23314048      -8.28184509
N        2.09129524       5.87347078      12.46500301  F       0.00000000       0.00000000       0.00000000       0.18531911       0.01529668      -0.61638272      -8.40166950
N        8.89292440       1.98701211      15.27891546  T       0.44654153       0.06134168       0.00521997       0.01152450      -0.01553515       0.06781578      -8.36199188
N        0.18741711       2.24898787      15.26879858  T      -0.40038404       0.71134218      -0.03028723       0.00826225       0.03272116       0.02596406      -8.31178474
N        6.96297979       6.18095827      12.46500301  F       0.00000000       0.00000000       0.00000000      -0.26704353       0.04630277      -0.25016212      -8.33376408
N        2.48515070       0.83434259      13.80932694  T       0.37535461       0.53443557      -0.12361871      -0.02911392       0.00829700       0.03856083      -8.47438145
N        9.10799383       4.69154022      13.89222469  T       0.15387582       0.76411529       0.20883619       0.02039686       0.02802512       0.03344458      -8.32117176
N        4.37514953       5.22723719      13.88655336  T      -0.87098256      -0.01452881      -0.02701307       0.02688551       0.04446367      -0.00397203      -8.46510887
N       11.14963183       1.26796704      13.79300478  T      -0.82694413      -0.18009280      -0.37095503      -0.01657936       0.05107771       0.05182902      -8.36834812
N        6.43363302       0.94588205      13.81389244  T       0.72587679      -0.73152018      -0.22896555      -0.02254171      -0.03786796       0.00702424      -8.41842365
N       13.03326258       4.73784263      13.80435439  T       0.40450564      -0.83708834      -0.18396837       0.00080714      -0.00756314      -0.02367868      -8.20835876
N        4.43837357       7.43354893      12.46500301  F       0.00000000       0.00000000       0.00000000      -0.15201245       0.03066964       0.42240733      -8.97672939
N       11.12040818       3.56105704      15.12799042  T       0.02583596      -0.00384782      -0.57140993      -0.00988019       0.02106570      -0.04394996      -8.74988556
N        2.23166752       3.57339549      13.82576113  T       0.15800974       0.27797450      -0.33059299      -0.00998569       0.03124942       0.04499949      -8.94015884
N        8.86545249       7.42892999      13.82742295  T       0.31827829      -0.23073105      -0.10481758      -0.00347341      -0.03444410      -0.02015933      -9.06303978
N        4.26084566       2.55872869      12.46500301  F       0.00000000       0.00000000       0.00000000      -0.07792270      -0.53080213      -0.65023422      -8.50861454
N       10.91840553       6.40247297       9.71681404  F       0.00000000       0.00000000       0.00000000      -1.79086399      -0.24528082       0.74964583      -7.57803965
N        2.09129524       5.87347078       9.71681404  F       0.00000000       0.00000000       0.00000000       0.40799370      -2.36128664       0.90611482      -7.44702673
N        8.74885559       2.02972674      12.46500301  F       0.00000000       0.00000000       0.00000000       0.78513759      -0.12776500      -0.81117427      -8.61892319
N        0.30541945       2.33721423      12.46500301  F       0.00000000       0.00000000       0.00000000      -0.53067023       0.44014016      -0.58598441      -8.42910194
N        6.96297979       6.18095827       9.71681404  F       0.00000000       0.00000000       0.00000000       1.64101708       0.93924654       0.48527318      -7.35435915
N        2.39671469       0.77713639      11.09090900  F       0.00000000       0.00000000       0.00000000       2.16019535       2.27389264       1.87028885      -5.72683716
N        9.05427456       4.62088060      11.09090900  F       0.00000000       0.00000000       0.00000000       0.40024492       0.26097223      -0.86315334      -8.84361076
N        4.56626511       5.14988232      11.09090900  F       0.00000000       0.00000000       0.00000000      -0.58828628      -0.44762540      -0.28789842      -8.52089691
N       11.22382545       1.30613840      11.09090900  F       0.00000000       0.00000000       0.00000000      -0.58415651       1.66446340       0.42318588      -7.67658520
N        6.35214090       0.99865079      11.09090900  F       0.00000000       0.00000000       0.00000000      -1.19284379      -0.34025574       1.58646643      -6.75994205
N       13.00970078       4.84239483      11.09090900  F       0.00000000       0.00000000       0.00000000      -0.02786355      -1.24705243      -0.74665588      -8.85892677
N        4.43837357       7.43354893       9.71681404  F       0.00000000       0.00000000       0.00000000      -0.15081169       0.75396955       0.87925971      -7.68920469
N       11.09593391       3.58980465      12.46500301  F       0.00000000       0.00000000       0.00000000      -0.08360452      -0.24863127      -1.59568167      -9.26819897
N        2.21918678       3.58980465      11.09090900  F       0.00000000       0.00000000       0.00000000      -0.08545488       0.40602672      -0.83067429      -8.86393833
N        8.87674713       7.43354893      11.09090900  F       0.00000000       0.00000000       0.00000000       0.21258357      -0.38727292      -0.94382834      -9.24573994
C        0.31726224       2.63455216      19.64584155  T      -3.72735021       3.62153330       0.15208208      -0.01210403      -0.01274683       0.02925634      -9.35408783
O        1.13785147       2.62629347      20.57818518  T      -2.56295828      -1.10880347       3.47787765      -0.04687333      -0.03752707      -0.03450394      -6.20245504
H       -0.75071122       2.89948463      19.86438277  T      -0.16026295       0.39878475      -0.52769312      -0.05839449      -0.05736628      -0.00843248      -3.51677608
