87
Lattice="13.315120697021484 -0.0 -8.000000134899068e-16 -1.2000000467046398e-15 7.687488555908203 -2.748189687728882 -0.0 3.700000002833815e-15 30.230087280273438" Properties=species:S:1:pos:R:3:move_mask:L:1:momenta:R:3:forces:R:3:energies:R:1 adsorbate_info="_JSON {\"site\": {\"coordinates\": [1.2553778899999997, 2.21846163, 17.961383820000002], \"connectivity\": 2, \"topology\": [4, 40], \"n_vector\": [0.04941633207447507, 0.17497315735752003, 0.9833323041213717], \"h_vector\": [0.9922768745583174, -0.1240427515688728, 0.0], \"site_formula\": {\"Cr\": 1, \"N\": 1}}, \"smiles\": \"S1S\", \"mdf\": 0.5002147606863621, \"adsorbate_formula\": \"CHO\"}" bond_change_count=0 energy=-770.1524658203125 stress="0.0005270064575597644 2.3929151211632416e-05 2.4307577405124903e-05 2.3929151211632416e-05 0.00039914489025250077 -1.5065410480019636e-05 2.4307577405124903e-05 -1.5065410480019636e-05 0.0003866522165481001" free_energy=-770.1524658203125 pbc="T T F"
Cr       3.63032158       4.10398909      15.24382450  T       0.90610765      -1.44508456       0.70630838      -0.04703104      -0.03086182      -0.02285926     -10.23912525
Cr      10.12104397       0.16853899      17.90747992  T      -0.35807072      -0.30012891      -0.88100213       0.01367524       0.05356351       0.01438153      -9.34624577
Cr       0.94665814       4.45235188      15.21845953  T      -0.94498259       0.02976756       1.21598310       0.01996893      -0.02587509       0.00959718     -10.39909077
Cr       7.64316925       0.35806330      17.87296318  T       1.54279644       2.13767082      -0.38643235      -0.02827549       0.03356361      -0.00589502      -9.56147099
Cr       2.29832978       2.26173611      17.62016547  T       3.45020525       1.86599528      -5.66633681      -0.07082701      -0.00968343       0.00388265      -9.69582367
Cr       8.63607631       5.64319388      15.55737890  T      -0.41194768      -1.13599157       1.92721693       0.00005218      -0.09128457       0.01926842     -10.21846771
Cr       3.09883191       6.51974845      16.39969393  T      -2.12511133       0.23155132      -1.13165920       0.01294405      -0.01078085      -0.00962493      -8.79386234
Cr       9.45926322       2.85484165      16.95523438  T      -0.72049969       0.95834268       2.15114936      -0.04667871       0.02823991       0.02121770     -10.46302223
Cr       5.66181520       6.48620887      16.47285300  T      -1.51070791      -1.96086985      -2.62828224       0.02322317       0.00362095      -0.06758346      -8.98637199
Cr      12.43076926       2.47394615      16.92402117  T       0.38446613       0.76141373       0.96169637       0.05614607       0.00590375      -0.01412305     -10.22346306
Cr       4.48744418       1.19165128      16.69075061  T       2.06305874       1.16593189       0.79705213       0.03398052      -0.00912422      -0.00999534     -10.06473351
Cr      11.35803944       4.80295715      16.46302978  T       1.37021180      -1.18896084      -1.68063682       0.02083929       0.04904044      -0.02942705      -9.61892414
Cr       3.51657271       4.32285738      12.46500301  F       0.00000000       0.00000000       0.00000000       0.20174354      -0.03488127      -0.07626785     -10.21333027
Cr      10.19613689       0.51394885      15.22426649  T      -0.24601750      -0.42117417       0.34226502      -0.00826496      -0.02872454      -0.01198460     -10.25062847
Cr       0.93565130       4.34684753      12.46500301  F       0.00000000       0.00000000       0.00000000       0.07930574       0.03896677      -0.06284185     -10.30247784
Cr       7.63863509       0.51308033      15.17895355  T      -0.63081747       0.34015310      -0.32829841      -0.00244948      -0.02749074      -0.00932184     -10.11629486
Cr       2.02044362       2.08378297      15.12030815  T       0.31028390       0.51953541      -0.05102611       0.03952894      -0.02000886      -0.01796630     -10.14644623
Cr       8.86289692       5.94345331      12.46500301  F       0.00000000       0.00000000       0.00000000       0.04673836      -0.07325715      -0.03811839     -10.30117035
Cr       3.07719184       6.69506877      13.71426032  T       0.00376059      -0.14935150      -1.35152222      -0.00468940      -0.00645115      -0.00847863     -10.21250153
Cr       9.79390396       2.87921108      13.87263496  T      -0.73238884      -0.44784609       0.67064527      -0.01728952      -0.02477999       0.01405334     -10.24214172
Cr       5.72241364       6.64568290      13.71408725  T      -0.70705971      -0.41053577      -0.50973623       0.04658389      -0.02371818       0.02423941     -10.11102486
Cr      12.39346084       2.79373884      13.85953387  T       1.03767421      -0.05652155      -0.44011257       0.01975942       0.01386201      -0.00342490     -10.29171276
Cr       4.47346159       1.19622674      13.73118173  T      -0.36954437      -0.04686577      -0.95057583       0.00791094      -0.04140991      -0.02149916     -10.43306732
Cr      11.04935425       5.06002593      13.78831101  T      -0.46083420      -0.12628827       0.91069020       0.00899652      -0.01295888       0.00620078     -10.25524902
Cr       3.51657271       4.32285738       9.71681404  F       0.00000000       0.00000000       0.00000000      -0.08623338       0.92991954       0.88896132      -8.79798412
Cr      10.17413330       0.47911340      12.46500301  F       0.00000000       0.00000000       0.00000000       1.99519455      -0.25640064      -0.19892204     -10.06950760
Cr       0.93565130       4.34684753       9.71681404  F       0.00000000       0.00000000       0.00000000       0.67054397       2.14770746       1.31182420      -8.67225170
Cr       7.59321165       0.50310314      12.46500301  F       0.00000000       0.00000000       0.00000000      -2.50792885       1.01900458      -1.27322721     -10.15230370
Cr       2.20533633       2.09970903      12.46500301  F       0.00000000       0.00000000       0.00000000      -0.42066419      -1.87153697      -2.35682869     -10.46427536
Cr       8.86289692       5.94345331       9.71681404  F       0.00000000       0.00000000       0.00000000      -0.94166183      -0.42255095       1.54064536      -8.98334312
Cr       3.14098763       6.70049572      11.09090900  F       0.00000000       0.00000000       0.00000000      -0.50730801       0.01618302      -1.73770714     -10.43797588
Cr       9.79854774       2.85675168      11.09090900  F       0.00000000       0.00000000       0.00000000      -0.59520400      -0.59255600       1.53104687      -8.89848614
Cr       5.72190905       6.67650604      11.09090900  F       0.00000000       0.00000000       0.00000000       0.44639081      -0.54005694      -1.62268090     -10.50384140
Cr      12.37946892       2.83276200      11.09090900  F       0.00000000       0.00000000       0.00000000      -0.06599912      -1.33107460       1.67818463      -8.99139404
Cr       4.45222378       1.23615611      11.09090900  F       0.00000000       0.00000000       0.00000000       0.98237884      -1.41308117       1.62938464      -9.37662220
Cr      11.10978413       5.07990026      11.09090900  F       0.00000000       0.00000000       0.00000000       0.41020313       2.13821912      -0.07984443      -9.88828373
N        3.91577001       2.23316894      18.10867527  T      -2.52488280      -0.86709129      -1.19933099      -0.02187294       0.02000809       0.02237880      -7.06980515
N       10.89746377       6.26946566      15.38310687  T       0.38838850      -0.09636403       0.22602759       0.04224499      -0.01002297      -0.02125136      -8.58287239
N        1.90857060       6.09827329      15.15562539  T       0.51464598       0.59733331       0.38077952      -0.01966143      -0.00389928      -0.00909957      -8.28959846
N        8.56309650       1.95977289      18.06373901  T       0.29157163      -0.24031427      -1.33824936       0.00234271       0.00881392      -0.04119694      -7.74902630
N        0.47256902       2.25400692      18.28753852  T       0.20874998       1.28352080       1.64287803       0.00488520      -0.01346548       0.01383106      -8.41896629
N        6.83110331       5.99981034      15.17597909  T      -0.55457050       0.25683790       0.43179884      -0.01816178      -0.00015709       0.05283303      -8.76077938
N        2.39308252       0.83121117      16.52363885  T      -0.29933592      -0.36315200       0.46301892      -0.03100568      -0.05234510       0.01702097      -8.46013165
N        8.66968022       4.37148561      16.69067901  T       0.76041237       0.01193039      -1.47190408       0.05514878       0.03703567      -0.04382503      -8.04161167
N        4.49190168       5.16034705      16.56537677  T      -0.58886719       2.78302708      -0.10917886      -0.01584330       0.03036599       0.00515479      -8.06820488
N       11.29342405       1.09244744      16.76608279  T      -0.53152409      -0.46350172       0.33818979       0.03057867      -0.01539339      -0.02891397      -8.43937683
N        6.35437323       0.83934231      16.61430553  T       0.35935403      -0.49239674       0.26778624      -0.02737778      -0.03195161      -0.01521477      -8.63277340
N       13.03344572       4.86290974      16.49633954  T      -0.80763515      -0.09705616      -1.29232919      -0.01119966       0.01273188      -0.00291002      -7.62702799
N        4.43510362       7.47468384      15.56082027  T       0.09777891      -0.00122346       1.00650358       0.00309922      -0.05341963       0.00201274      -8.57411957
N       11.06295012       3.52046099      17.77297753  T       0.26173305       0.47975406      -1.90404722       0.03245211      -0.01907015       0.02491713      -7.55348444
N        2.21105860       3.63639441      16.43612043  T      -0.08314815      -0.55024393      -1.07380108      -0.02852707      -0.01289207       0.00909552      -8.40347576
N        8.78527852       7.28409144      16.44500876  T       0.11305304       0.32822673      -0.61306688       0.00935604       0.02201661       0.02473927      -7.41142130
N        4.38147917       2.46915759      15.23278011  T       0.30778463      -0.58116324      -0.26432926       0.01510525      -0.01095784       0.02471000      -8.14237499
N       10.91840553       6.40247297      12.46500301  F       0.00000000       0.00000000       0.00000000      -0.01801223      -0.86267626      -0.24215052      -8.28134727
N        2.09129524       5.87347078      12.46500301  F       0.00000000       0.00000000       0.00000000       0.20260032       0.08662675      -0.56232548      -8.39583492
N        8.89508664       1.98685897      15.28195873  T       0.91877499      -0.17033096      -0.01431472       0.01198092       0.01064241       0.00553448      -8.38503838
N        0.18882599       2.26818672      15.28157761  T      -0.41392898       0.47321988      -0.07349082       0.02305909       0.02854529       0.00229915      -8.30192852
N        6.96297979       6.18095827      12.46500301  F       0.00000000       0.00000000       0.00000000      -0.27897903       0.06940687      -0.23199661      -8.32018661
N        2.47668256       0.84562789      13.82731588  T       0.87714643       0.95812844       0.04261073       0.02497119      -0.02568203      -0.05066336      -8.44525909
N        9.11177911       4.70586254      13.90605606  T       0.44366247       0.42643785      -0.04420161       0.01041716      -0.01337194      -0.02486610      -8.31233120
N        4.37628593       5.25059000      13.88407805  T      -0.98833629       0.24075968       0.18407903       0.02272153      -0.02643921       0.01219106      -8.47453690
N       11.14443622       1.28129352      13.80589006  T      -1.05214304      -0.21908123      -0.30700361      -0.01506150      -0.02355614      -0.02737355      -8.38099194
N        6.42743849       0.93733123      13.81498391  T       1.06765590      -1.03900374      -0.29276838       0.02717589       0.01073670      -0.00603466      -8.43169785
N       13.03622720       4.74440838      13.80250366  T       0.43837471      -0.96391351      -0.09550936      -0.00803434       0.02932519       0.01777489      -8.20238590
N        4.43837357       7.43354893      12.46500301  F       0.00000000       0.00000000       0.00000000      -0.14618239       0.14683753       0.33598202      -8.99405575
N       11.11704152       3.57186642      15.12399552  T       0.04179639      -0.14120975      -0.84552185       0.02170936       0.00374055      -0.01818952      -8.74524021
N        2.23591155       3.58530449      13.83126577  T       0.08159513      -0.02247197      -0.25048892      -0.03284527       0.02146875       0.01309748      -8.94352436
N        8.86859939       7.42692030      13.82963192  T      -0.25755882       0.05986229      -0.24705991      -0.01255035       0.03326328      -0.01886871      -9.07228851
N        4.26084566       2.55872869      12.46500301  F       0.00000000       0.00000000       0.00000000      -0.07788542      -0.48770642      -0.66327178      -8.52656078
N       10.91840553       6.40247297       9.71681404  F       0.00000000       0.00000000       0.00000000      -1.79413033      -0.21836233       0.76162082      -7.58215714
N        2.09129524       5.87347078       9.71681404  F       0.00000000       0.00000000       0.00000000       0.40812200      -2.35273886       0.92023206      -7.45086193
N        8.74885559       2.02972674      12.46500301  F       0.00000000       0.00000000       0.00000000       0.77785635      -0.11179510      -0.79808462      -8.62181091
N        0.30541945       2.33721423      12.46500301  F       0.00000000       0.00000000       0.00000000      -0.52774417       0.45085353      -0.55411857      -8.43512440
N        6.96297979       6.18095827       9.71681404  F       0.00000000       0.00000000       0.00000000       1.64112067       0.93839985       0.48761743      -7.35301447
N        2.39671469       0.77713639      11.09090900  F       0.00000000       0.00000000       0.00000000       2.15055060       2.30112481       1.90678215      -5.73077583
N        9.05427456       4.62088060      11.09090900  F       0.00000000       0.00000000       0.00000000       0.39591396       0.26102188      -0.85290039      -8.84596252
N        4.56626511       5.14988232      11.09090900  F       0.00000000       0.00000000       0.00000000      -0.59288317      -0.44520015      -0.28170428      -8.52116871
N       11.22382545       1.30613840      11.09090900  F       0.00000000       0.00000000       0.00000000      -0.58755946       1.65415776       0.43998718      -7.67962742
N        6.35214090       0.99865079      11.09090900  F       0.00000000       0.00000000       0.00000000      -1.19092691      -0.33645368       1.58980536      -6.76005840
N       13.00970078       4.84239483      11.09090900  F       0.00000000       0.00000000       0.00000000      -0.02549286      -1.24955416      -0.75323808      -8.85931778
N        4.43837357       7.43354893       9.71681404  F       0.00000000       0.00000000       0.00000000      -0.18019362       0.79084724       0.88257599      -7.67162228
N       11.09593391       3.58980465      12.46500301  F       0.00000000       0.00000000       0.00000000      -0.08829979      -0.19779189      -1.55852997      -9.27631283
N        2.21918678       3.58980465      11.09090900  F       0.00000000       0.00000000       0.00000000      -0.07251564       0.40128160      -0.80876786      -8.86577702
N        8.87674713       7.43354893      11.09090900  F       0.00000000       0.00000000       0.00000000       0.21210653      -0.36137885      -0.93797541      -9.22877407
C        0.37783784       2.31670764      19.62870785  T       0.14837639      -2.33639843       1.01224168      -0.06892657       0.03910175       0.01225948      -9.35195732
O        1.31660923       2.29338571      20.44568425  T      -1.59851253       0.34376827       3.50060162      -0.04737306      -0.03165558       0.04141796      -6.22717857
H       -0.67465829       2.39565181      20.01035610  T      -0.12319232       0.53829301      -1.41692596       0.02812552      -0.01966406      -0.08666520      -3.52938342
