87
Lattice="13.315120697021484 -0.0 -8.000000134899068e-16 -1.2000000467046398e-15 7.687488555908203 -2.748189687728882 -0.0 3.700000002833815e-15 30.230087280273438" Properties=species:S:1:pos:R:3:move_mask:L:1:momenta:R:3:forces:R:3:energies:R:1 adsorbate_info="_JSON {\"site\": {\"coordinates\": [7.59321165, 0.50310314, 17.96138382], \"connectivity\": 1, \"topology\": [3], \"n_vector\": [-0.48521632019542876, 0.451765059476074, 0.7486477500484366], \"h_vector\": [1.0, 0.0, 0.0], \"site_formula\": {\"Cr\": 1}}, \"smiles\": \"Cl\", \"mdf\": 1.7535142417301466, \"adsorbate_formula\": \"CHO\"}" bond_change_count=0 energy=-770.4552001953125 stress="0.0005147829651832581 1.685000279394444e-05 1.5203516340989154e-05 1.685000279394444e-05 0.0003688531869556755 -1.5228152733470779e-05 1.5203516340989154e-05 -1.5228152733470779e-05 0.0003585153608582914" free_energy=-770.4552001953125 pbc="T T F"
Cr       3.60964951       4.09245725      15.25486163  T       0.17084518      -0.85048130       1.29822774       0.02907491       0.09470432      -0.00400177     -10.20497894
Cr      10.14093881       0.30203734      17.93385867  T      -0.46043397      -1.00606933      -0.50278504      -0.02060944      -0.00095418      -0.02385838      -9.25505161
Cr       0.95046487       4.42357623      15.19280436  T      -0.94788085      -0.14452037       1.71021326      -0.04434597       0.03088105       0.02112171     -10.45503426
Cr       7.58693583       0.40783543      17.86270742  T       0.75795827      -0.38477573      -4.27093777       0.02574578       0.03113776      -0.05564508      -9.37338448
Cr       2.14970844       2.22456062      17.59345281  T      -2.56438896       2.48847533      -3.22600291      -0.06704809       0.01962526       0.01092732      -9.80095482
Cr       8.70715588       5.67138377      15.37636719  T      -0.66415372      -0.62996758       2.52379253       0.01310501      -0.00819027       0.01451129     -10.09902382
Cr       3.08479328       6.49362976      16.38763080  T      -0.99228657      -0.11565498      -1.50216912       0.00854110       0.00236496       0.02371380      -8.69604969
Cr       9.51263520       2.90120137      16.87440924  T      -2.37009361       1.09837657       2.16985762      -0.01101902      -0.03830290       0.02329063     -10.47188854
Cr       5.62616689       6.50369000      16.50228348  T      -0.71405926      -1.25800512      -1.85930261      -0.08579260       0.02568769       0.00362355      -9.34255123
Cr      12.53042917       2.37487568      16.96099990  T       1.81379057      -0.49366231       1.99464591      -0.00087629       0.01029018      -0.00586396     -10.46286201
Cr       4.41492772       1.17572318      16.73286215  T      -0.21269275       1.43697695       2.44299692       0.05269757      -0.03917158       0.00053263     -10.03711987
Cr      11.42355679       4.81201817      16.46648031  T       1.08476242      -2.50663977      -0.85009882       0.00062668      -0.06093839       0.05772054      -9.69491291
Cr       3.51657271       4.32285738      12.46500301  F       0.00000000       0.00000000       0.00000000       0.25314707      -0.02712964      -0.09442393     -10.21352959
Cr      10.22294863       0.48638015      15.20032845  T      -0.04247455       0.44254338       0.64973980      -0.01987320       0.04897689       0.00412044     -10.21801853
Cr       0.93565130       4.34684753      12.46500301  F       0.00000000       0.00000000       0.00000000       0.00411770       0.05260497      -0.05490048     -10.29886246
Cr       7.61699063       0.46900060      15.18207574  T       0.06069813      -1.17379771       0.09453514       0.00289145       0.03840184       0.04768975     -10.12698936
Cr       2.06924660       2.06916017      15.10163977  T      -0.61855269      -0.27642116      -0.42805236       0.00402009       0.02851456      -0.05327202     -10.15876389
Cr       8.86289692       5.94345331      12.46500301  F       0.00000000       0.00000000       0.00000000      -0.00831804      -0.08826679      -0.05027261     -10.28285980
Cr       3.08245016       6.67504709      13.70870849  T      -0.43323803       0.03620068      -0.54633656       0.01407415       0.03109344      -0.01058336     -10.22545815
Cr       9.80401678       2.84172663      13.87027992  T       0.38506394       0.32336470      -1.37453787       0.00762957       0.04975358      -0.01581857     -10.26019192
Cr       5.71678987       6.63625247      13.73389596  T      -0.42564879      -1.06393121      -1.20004579      -0.00332201       0.04746735      -0.01356171     -10.07303333
Cr      12.39158156       2.79679133      13.85692466  T      -0.27539900      -0.30086301       0.42954320      -0.01507398       0.01239997      -0.00896446     -10.27376938
Cr       4.48897189       1.18479794      13.72132975  T       1.07747150       0.23682162      -0.65979553      -0.02221090      -0.00313711       0.01024613     -10.42480564
Cr      11.07835768       5.05085619      13.79389065  T       1.33097294      -0.33829050      -0.44738705       0.01893657       0.02272165       0.00173855     -10.20003414
Cr       3.51657271       4.32285738       9.71681404  F       0.00000000       0.00000000       0.00000000      -0.08027105       0.92940426       0.88485473      -8.79866982
Cr      10.17413330       0.47911340      12.46500301  F       0.00000000       0.00000000       0.00000000       1.96925187      -0.29010707      -0.23527426     -10.04424000
Cr       0.93565130       4.34684753       9.71681404  F       0.00000000       0.00000000       0.00000000       0.66781145       2.14345837       1.29932499      -8.67221451
Cr       7.59321165       0.50310314      12.46500301  F       0.00000000       0.00000000       0.00000000      -2.47116637       1.02079189      -1.29783416     -10.14489555
Cr       2.20533633       2.09970903      12.46500301  F       0.00000000       0.00000000       0.00000000      -0.41388512      -1.86029303      -2.40755701     -10.45573330
Cr       8.86289692       5.94345331       9.71681404  F       0.00000000       0.00000000       0.00000000      -0.94603181      -0.42024136       1.52850044      -8.98263931
Cr       3.14098763       6.70049572      11.09090900  F       0.00000000       0.00000000       0.00000000      -0.48100668      -0.06916832      -1.73927915     -10.44873238
Cr       9.79854774       2.85675168      11.09090900  F       0.00000000       0.00000000       0.00000000      -0.59997958      -0.55551404       1.48667753      -8.89570045
Cr       5.72190905       6.67650604      11.09090900  F       0.00000000       0.00000000       0.00000000       0.41181535      -0.59751892      -1.60273945     -10.50298691
Cr      12.37946892       2.83276200      11.09090900  F       0.00000000       0.00000000       0.00000000      -0.04844238      -1.31455708       1.65125108      -8.98953438
Cr       4.45222378       1.23615611      11.09090900  F       0.00000000       0.00000000       0.00000000       0.95700520      -1.38428533       1.59012628      -9.37194347
Cr      11.10978413       5.07990026      11.09090900  F       0.00000000       0.00000000       0.00000000       0.39647746       2.07363415      -0.13607666      -9.87831974
N        3.72433440       2.16541920      18.20325385  T      -2.96421041      -2.47486518      -2.24449013       0.00054216       0.01469207       0.02120125      -7.03004360
N       10.73655533       6.25212195      15.44869633  T      -0.05462559      -0.14962516       0.76853806       0.03234702       0.01051167      -0.02420844      -8.58050251
N        1.91336353       6.08325528      15.13056432  T       0.32165435       0.57193273       0.71713668       0.03833181       0.01274455       0.01034038      -8.28203392
N        8.64265288       1.95110353      17.98345068  T       0.41280093      -0.78298204      -2.30189529       0.01613305       0.00453866      -0.00601310      -7.73122120
N        0.40203675       2.01729374      18.10971445  T       1.36862801       0.04986522      -1.60456554       0.04401308      -0.01220098       0.01494873      -7.66019440
N        6.82199461       6.09669768      15.23274871  T      -0.23437848       0.77411455       0.41882030       0.02428646      -0.00675532      -0.06125537      -8.63583946
N        2.39928097       0.79529950      16.49176593  T       0.29837332       0.09342769       0.44240879      -0.04101348      -0.03853828      -0.02252860      -8.47507858
N        8.73640802       4.37767403      16.57514843  T       0.70448018      -0.21297666      -1.45603344       0.01830250       0.01524333       0.01246190      -7.80169964
N        4.49455937       5.15510069      16.57279436  T      -0.54622772       2.27392542      -0.41169498       0.02592626      -0.00029013      -0.02533585      -8.02718830
N       11.31823292       1.02123107      16.73700545  T      -0.35288666      -0.38479431       0.24078615       0.01462832      -0.01525243       0.00239177      -8.44149590
N        6.32576559       0.85988889      16.59484884  T       0.01812512      -1.07268505       0.09676865       0.02770076      -0.03606397       0.05428989      -8.53622532
N       13.07593138       4.96907421      16.47680843  T      -0.74826463      -0.35256138      -1.01963025      -0.01384349       0.00623989      -0.01889914      -7.59254217
N        4.41316171       7.47985315      15.55797601  T      -0.00868491      -0.21153970       0.73838033      -0.00424562      -0.05917388       0.01554370      -8.62761497
N       11.15957536       3.49256818      17.72847588  T       0.15805319       0.27963127      -2.42131791       0.00192744       0.02475363      -0.05336583      -7.54636240
N        2.20214679       3.65071669      16.44247058  T       0.07969745      -0.55615926      -1.22270859       0.00839242       0.01616645       0.02444917      -8.35493469
N        8.61953578       7.46514834      16.71333959  T      -0.63755000       2.09274182      -0.94514167       0.00104265      -0.00843613      -0.00906122      -8.28883076
N        4.32706695       2.44531628      15.24851228  T      -0.19169994      -0.98255122       0.02388059       0.01137364      -0.00698626      -0.00059128      -8.18149853
N       10.91840553       6.40247297      12.46500301  F       0.00000000       0.00000000       0.00000000      -0.10692188      -0.94576240      -0.13790962      -8.37361622
N        2.09129524       5.87347078      12.46500301  F       0.00000000       0.00000000       0.00000000       0.18611681       0.04450355      -0.66434467      -8.39799976
N        8.91478694       1.93495524      15.27533997  T       0.83497945      -0.37897906      -0.59475930      -0.00506061       0.00382437       0.00652369      -8.37316704
N        0.21511945       2.32168999      15.25369435  T      -0.33863052       0.69783210      -0.24320648      -0.00644226       0.00883791       0.01672634      -8.35191917
N        6.96297979       6.18095827      12.46500301  F       0.00000000       0.00000000       0.00000000      -0.26760301       0.25030398      -0.06158500      -8.35532570
N        2.47354968       0.82738201      13.80569140  T       0.64169710       0.64326019       0.01665118      -0.01403293       0.03134951      -0.00021701      -8.44300079
N        9.05192086       4.65772803      13.86454691  T       0.55754433       1.07627367       0.24647354       0.05085495      -0.01403405      -0.00299770      -8.28907776
N        4.38959324       5.23355138      13.88735307  T      -0.59687465       0.24346469       0.12842654       0.00413644      -0.01271950       0.01568368      -8.45516586
N       11.16192528       1.27363787      13.80696148  T      -1.25904510      -0.00294491      -0.27791853      -0.02129191      -0.01361075      -0.01569444      -8.41162586
N        6.43376984       0.94360128      13.82258779  T       0.80294676      -0.81980435      -0.20168394      -0.02644710       0.00059611       0.00982790      -8.43347263
N       13.02940377       4.78457140      13.79428386  T       0.46246049      -0.26225912      -0.08302696       0.00567541      -0.01265246      -0.02031739      -8.20289230
N        4.43837357       7.43354893      12.46500301  F       0.00000000       0.00000000       0.00000000      -0.11089483       0.05995591       0.33998036      -8.94478035
N       11.12335735       3.58534614      15.09979833  T       0.09287876       0.08050375      -0.73412005      -0.00213361      -0.02116052       0.00223893      -8.74985027
N        2.23538903       3.58621446      13.82517789  T      -0.21331825       0.24206520      -0.08945217      -0.00314550      -0.00899340      -0.01489195      -8.98306751
N        8.85413542       7.37426746      13.96375202  T       0.31043237      -0.27850100      -0.23666481      -0.03541574      -0.00284716      -0.01166528      -9.07923508
N        4.26084566       2.55872869      12.46500301  F       0.00000000       0.00000000       0.00000000      -0.05901963      -0.51477313      -0.63810474      -8.52323341
N       10.91840553       6.40247297       9.71681404  F       0.00000000       0.00000000       0.00000000      -1.76675296      -0.23000096       0.71386349      -7.57750082
N        2.09129524       5.87347078       9.71681404  F       0.00000000       0.00000000       0.00000000       0.40372962      -2.37130904       0.89804178      -7.44595242
N        8.74885559       2.02972674      12.46500301  F       0.00000000       0.00000000       0.00000000       0.76128513      -0.16608682      -0.82745922      -8.63409424
N        0.30541945       2.33721423      12.46500301  F       0.00000000       0.00000000       0.00000000      -0.52714980       0.45634615      -0.58044297      -8.43545437
N        6.96297979       6.18095827       9.71681404  F       0.00000000       0.00000000       0.00000000       1.63056755       0.92254311       0.47198838      -7.35523415
N        2.39671469       0.77713639      11.09090900  F       0.00000000       0.00000000       0.00000000       2.16300702       2.28604984       1.87664652      -5.72666168
N        9.05427456       4.62088060      11.09090900  F       0.00000000       0.00000000       0.00000000       0.41199017       0.29439348      -0.85859692      -8.84444237
N        4.56626511       5.14988232      11.09090900  F       0.00000000       0.00000000       0.00000000      -0.57441765      -0.44659573      -0.29402182      -8.52022648
N       11.22382545       1.30613840      11.09090900  F       0.00000000       0.00000000       0.00000000      -0.58018219       1.62800479       0.42588055      -7.67911148
N        6.35214090       0.99865079      11.09090900  F       0.00000000       0.00000000       0.00000000      -1.17106247      -0.33657026       1.58865547      -6.76867437
N       13.00970078       4.84239483      11.09090900  F       0.00000000       0.00000000       0.00000000      -0.02157804      -1.25385535      -0.78110671      -8.85639381
N        4.43837357       7.43354893       9.71681404  F       0.00000000       0.00000000       0.00000000      -0.13794667       0.77421182       0.90421128      -7.69388533
N       11.09593391       3.58980465      12.46500301  F       0.00000000       0.00000000       0.00000000      -0.08763619      -0.15401553      -1.51058149      -9.28048897
N        2.21918678       3.58980465      11.09090900  F       0.00000000       0.00000000       0.00000000      -0.08115086       0.41013944      -0.82045901      -8.86340809
N        8.87674713       7.43354893      11.09090900  F       0.00000000       0.00000000       0.00000000       0.22748500      -0.47684216      -0.71824032      -9.26019955
C        8.08693819      -0.20973079      20.69035330  T       0.82129025      -0.82438764       3.99052070       0.00260329      -0.06388149      -0.06233323      -9.16796303
O        6.85019888      -0.41847170      20.98690676  T      -0.71044896      -1.25433945      -0.03896124      -0.01235330      -0.03308041      -0.02123573      -6.75156021
H        8.76507276      -0.00967133      21.53620439  T       0.56413472      -0.16976111       0.18368430       0.06764475       0.03040043      -0.01247834      -3.59712315
