37
Lattice="8.014131546020508 0.0 5.000000018137469e-16 1.2000000467046398e-15 7.718464374542236 -2.671377420425415 0.0 0.0 29.385150909423828" Properties=species:S:1:pos:R:3:move_mask:L:1:momenta:R:3:forces:R:3:energies:R:1 adsorbate_info="_JSON {\"site\": {\"coordinates\": [1.9799316566998833e-07, 1.2864107266666667, 17.47526041333333], \"connectivity\": 3, \"topology\": [4, 22, 34], \"n_vector\": [-0.005446914297316621, 0.6585945264754697, 0.7524782925913474], \"h_vector\": [-1.0, 0.0, 0.0], \"site_formula\": {\"Cr\": 1, \"Pt\": 2}}, \"smiles\": \"S1S\", \"mdf\": 1.8071868725984435, \"adsorbate_formula\": \"H\"}" bond_change_count=0 energy=-274.22613525390625 stress="3.7086450902279466e-05 6.735411375302647e-07 -7.657434366592497e-07 6.735411375302647e-07 0.0006637792685069144 -0.00016863459313753992 -7.657434366592497e-07 -0.00016863459313753992 -0.00015920301666483283" free_energy=-274.22613525390625 pbc="T T F"
Cr       0.00448965      -0.30547821      12.87693949  T       0.36263476      -2.13959150      -0.64435514      -0.01759712      -0.01454256      -0.00939256      -9.37268829
Cr       0.00000000       3.85923219      10.35158730  F       0.00000000       0.00000000       0.00000000      -0.00278970       0.16585134      -0.10588926      -8.53520393
Cr       0.00854252       0.03088493      15.85367972  T       1.14473268       1.07077990      -0.44471571       0.00772578       0.00323050       0.00160861      -9.33174896
Cr      -0.00876306       3.58708006      12.95540720  T       0.32068272      -1.10206975      -0.81041928      -0.01738246       0.02190487      -0.00858230      -9.35594177
Cr       0.01408545      -0.96708951      18.92763860  T      -0.03195883      -2.31245771      -0.72347239       0.00199858      -0.01876503       0.00715603      -7.61844206
Cr      -0.02878094       3.79628976      15.67848468  T      -0.33521490      -0.04137935      -0.10706145      -0.00570929      -0.00201392      -0.04947379      -8.50359344
Cr       2.67115815      -0.28484312      12.87413749  T      -0.91241208      -3.10216251      -0.13689097       0.01690435      -0.01978400      -0.01498815      -9.37400818
Cr       2.67137742       3.85923219      10.35158730  F       0.00000000       0.00000000       0.00000000      -0.03745051       0.11608475      -0.03340206      -8.52604008
Cr       2.71134611      -0.08777380      15.79184896  T      -0.22706555       0.72213633      -0.06562468       0.02981466       0.00909249       0.00765260      -9.27767277
Cr       2.66568580       3.65243586      12.91586361  T       0.37278042      -1.29501954      -0.98633040       0.01111709       0.02925856       0.00589386      -9.32988548
Cr       2.61430052      -0.30359038      18.27330839  T      -0.32265677       0.99241406      -0.44475318       0.02239452       0.03557315      -0.02792557      -7.87983894
Cr       2.57553093       3.61497681      15.88103140  T      -0.77418009       1.44153923      -0.62013898       0.00787035       0.00724959       0.00583981      -8.55731678
Cr       5.33768320      -0.28380766      12.87374060  T       0.12560649      -3.49873258      -2.43527592      -0.00036547      -0.06124348      -0.02887133      -9.37301540
Cr       5.34275484       3.85923219      10.35158730  F       0.00000000       0.00000000       0.00000000       0.03953560       0.11063607      -0.03614631      -8.53086853
Cr       5.29199013      -0.08123203      15.80167450  T       0.01272611       0.29044599      -0.52305489      -0.02989541       0.01072849      -0.00347997      -9.28879833
Cr       5.36072346       3.66341853      12.93132789  T      -0.26412161      -0.94094439      -0.15831815       0.00149068       0.00229767      -0.01415931      -9.32291126
Cr       5.37568130      -0.31248126      18.34008027  T       0.12666871      -1.49602264       0.02248183      -0.01655208       0.03217220      -0.02275084      -7.90036583
Cr       5.45530853       3.61875953      15.86970321  T      -0.20391281       0.28120701       0.84967039       0.00637706       0.00789346      -0.00675240      -8.53950024
Pt       1.33568871       1.92961609      11.68727589  F       0.00000000       0.00000000       0.00000000       0.01523228       0.15383971       0.05309284      -5.78309727
Pt       1.33568871       5.78884840       9.01589870  F       0.00000000       0.00000000       0.00000000       0.05794151       0.06239726      -1.10653496      -5.04323149
Pt       1.33148392       1.79104868      14.44021896  T      -0.63660773       0.38244462      -1.19683637       0.05049936      -0.01258160       0.04876838      -6.86601639
Pt       1.33568871       5.78884840      11.68727589  F       0.00000000       0.00000000       0.00000000      -0.14971311      -0.39261258       1.02769184      -6.96052074
Pt       1.28341993       1.60378827      17.26411763  T       0.57635514      -0.08445862       0.38752499       0.01216078      -0.02700356      -0.08416724      -5.95773554
Pt       1.35277873       5.59867215      14.33567411  T      -0.54523609       1.19023175       2.78327142      -0.01011734      -0.04801051       0.00406301      -6.69946671
Pt       4.00706577       1.92961609      11.68727589  F       0.00000000       0.00000000       0.00000000       0.03600792       0.28890020      -0.01098303      -5.75179386
Pt       4.00706577       5.78884840       9.01589870  F       0.00000000       0.00000000       0.00000000      -0.00740655       0.11649147      -1.02119207      -5.03623343
Pt       4.00941305       1.88053621      14.40934391  T      -0.10130270      -2.67836189       0.09902677      -0.02566707       0.00462292       0.00664562      -6.86814022
Pt       4.00706577       5.78884840      11.68727589  F       0.00000000       0.00000000       0.00000000       0.00333240      -0.43596336       1.41211343      -6.98957205
Pt       4.00553639       1.58750731      17.16176662  T      -1.41738494      -3.00832270       1.92326422       0.01510865       0.00090003       0.00564440      -5.80522203
Pt       4.00995479       5.50425759      14.43679236  T       0.35401471      -0.87080290       1.65313270      -0.00016438       0.01362057       0.01520524      -6.50675488
Pt       6.67844343       1.92961609      11.68727589  F       0.00000000       0.00000000       0.00000000      -0.04908396       0.13676143       0.05681491      -5.78902340
Pt       6.67844343       5.78884840       9.01589870  F       0.00000000       0.00000000       0.00000000      -0.05028643       0.08870161      -1.06573522      -5.03584099
Pt       6.68216184       1.76180061      14.44248162  T       0.28017716       0.70418489       0.10588851      -0.03214455      -0.00488894       0.01963926      -6.86568737
Pt       6.67844343       5.78884840      11.68727589  F       0.00000000       0.00000000       0.00000000       0.14584136      -0.32449573       1.02776933      -6.95810318
Pt       6.72351252       1.57246034      17.26973769  T      -1.78836111      -2.36571380      -0.48525434      -0.01012430      -0.01441929      -0.04785582      -5.96371603
Pt       6.66748022       5.63744648      14.33887344  T       0.44638154       3.31559235       0.30344018      -0.00396520      -0.03343588      -0.00389707      -6.70831823
H        0.00199961       2.06211466      18.36406785  T       0.04840147       0.24677228       1.05395022      -0.01493814      -0.00844784      -0.00341943      -4.01976967
