82
Lattice="14.653685569763184 -3.0000001167615996e-16 -2.204113721847534 -8.411406517028809 11.436505317687988 1.0077073574066162 -0.0 3.5000000656357872e-15 28.464778900146484" Properties=species:S:1:pos:R:3:move_mask:L:1:momenta:R:3:forces:R:3:energies:R:1 adsorbate_info="_JSON {\"site\": {\"coordinates\": [4.172621249999997, 10.006866455, 18.4685421], \"connectivity\": 2, \"topology\": [19, 74], \"n_vector\": [0.23082376190073134, -0.004841306816715165, 0.9729835315617119], \"h_vector\": [-0.1824483802867846, 0.9788694904136688, 0.09234234818334103], \"site_formula\": {\"Ta\": 1, \"Ru\": 1}}, \"smiles\": \"S1S\", \"mdf\": 1.6566947208856144, \"adsorbate_formula\": \"HN\"}" bond_change_count=0 energy=-774.5648803710938 stress="0.0005457597435452044 -2.1731335664298967e-07 -8.405208063777536e-05 -2.1731335664298967e-07 0.0006120038451626897 -1.8354010535404086e-05 -8.405208063777536e-05 -1.8354010535404086e-05 8.832194725982845e-05" free_energy=-774.5648803710938 pbc="T T F"
Ta      10.72976685       0.09530421      14.02861214  F       0.00000000       0.00000000       0.00000000       0.05915127      -0.62751532      -1.81621122     -12.46414948
Ta       1.09641480       1.23895478      14.02861214  F       0.00000000       0.00000000       0.00000000      -1.28013098      -0.31366861       0.32458988     -11.45702553
Ta       1.31983517       4.81793323      16.51472571  T      -1.81301372       0.41114581       3.34715175      -0.02119622       0.00943166       0.00192574     -12.83269215
Ta       6.24800081       2.36688663      18.87624904  T      -0.73073531      -2.58683869      -0.02194469      -0.00345522      -0.02386753      -0.00651616     -11.47557926
Ta      11.25266835       3.62769627      17.18375540  T      -1.25476625       0.94929628       4.39291056      -0.01284349      -0.00058514      -0.01617348     -12.21089554
Ta       7.69543786       2.22013600      15.03968102  T      -0.68332353       2.74919711      -5.45192542       0.01344042       0.00453370       0.00872445     -12.94078541
Ta      -2.22965584       3.25918391      14.96927744  T      -1.56349033       0.07841038      -3.40348399       0.00545120      -0.00569868       0.01449126     -11.63649750
Ta       2.68567346       1.08617604      17.58684399  T      -1.12921726       1.50962822       4.68337304      -0.00248301      -0.01734050       0.03139818     -12.91168880
Ta       3.10928845       4.47929811      13.17848206  F       0.00000000       0.00000000       0.00000000       0.21673544       0.60283834       1.31107235     -11.05118561
Ta       7.99123384       5.76569198      18.23419563  T      -1.02726387       2.94908187       1.92823701       0.00184780       0.02275664      -0.01405317     -11.80924988
Ta       6.52406359       5.81355715      14.53246593  F       0.00000000       0.00000000       0.00000000      -0.01932915      -0.56490654      -1.81157684     -12.48239136
Ta      -3.10928845       6.95720768      14.53246593  F       0.00000000       0.00000000       0.00000000      -1.30582464      -0.33505046       0.35212064     -11.45126724
Ta      -2.86789288      10.53343985      17.01595486  T       3.12455413      -1.64544890       0.06850095      -0.01629084       0.00793219       0.01253468     -12.83946037
Ta       2.07218977       8.03434754      19.29637887  T      -2.01910709       0.20841350       0.81269706      -0.07125163      -0.05335337      -0.00014531     -11.92710876
Ta       7.02039316       9.38319847      17.69594971  T      -0.31198012      -0.15421025       4.14201112      -0.00477386      -0.00143067      -0.01222146     -12.17333412
Ta       3.46649007       7.95227809      15.53607427  T       2.03886234       1.10243132      -3.77650316       0.00705140       0.00022310       0.00585246     -12.89743328
Ta      -6.43895340       8.97437905      15.47199160  T      -0.13278459       0.48028767      -3.14818770       0.01521146       0.00378382       0.00457573     -11.64459991
Ta      -1.50874127       6.86393243      18.13802613  T       0.88197041      -0.65642430       0.19570951      -0.00416620      -0.01084304       0.01928091     -12.88717937
Ta      -1.09641480      10.19755077      13.68233585  F       0.00000000       0.00000000       0.00000000       0.21883155       0.59688932       1.30691504     -11.04484844
Ta       3.73989503      11.44395001      18.80779594  T      -0.71594008       4.08709211       3.87038529       0.00090832       0.02235043      -0.01552257     -12.20478535
Ru       9.94034515       1.06377590      16.32098977  T      -0.58203081      -0.56138794      -0.47078121       0.00234607       0.00732774      -0.01026672      -9.49218750
Ru       0.32761885       2.09177936      16.46972633  T      -1.58319558       0.25837361       0.98250748       0.01023747      -0.01963888      -0.00615565      -9.36285400
Ru       0.95038573       5.36219840      18.94034526  T      -0.45304992      -1.78384961      -1.07244057      -0.00509382       0.01163957      -0.03647664      -8.41914749
Ru       5.41565323       3.33552551      14.28071499  F       0.00000000       0.00000000       0.00000000      -0.66726112       0.88193816      -1.08046031      -8.13323784
Ru      10.43598652       4.47917604      12.07660198  F       0.00000000       0.00000000       0.00000000       0.77368426       0.62044966       0.83570558      -7.32354021
Ru      10.23236179       2.76397467      14.28036213  F       0.00000000       0.00000000       0.00000000       0.96859443       0.30202121       0.41280064      -9.34133148
Ru       0.59900963       3.90762520      14.28036213  F       0.00000000       0.00000000       0.00000000       0.31296936      -1.31259942       0.22381604      -8.22714424
Ru       5.14291402       1.70530838      16.43372041  T      -1.53473935       1.36023880       0.54017265      -0.00309545      -0.00570530       0.01078888      -9.49927807
Ru       5.67533906       4.81133009      19.02790142  T       0.42710330      -0.37389531      -1.12545995      -0.00205892       0.01121700       0.01342604      -7.72625828
Ru       0.00351622       0.50369828      18.91689424  T       0.24528888       2.31877501       0.95753110      -0.01333264      -0.01788042       0.02541576      -8.89202976
Ru      12.53231246       1.61251460      15.28361350  T       0.68926476      -0.09253783      -0.45785421       0.00653611       0.01394376       0.00295135      -9.40225220
Ru       2.99595780       2.60242679      15.14379292  T       1.00735231      -1.06058427      -1.72100892      -0.01104718      -0.00148519       0.01817439      -9.25385857
Ru       7.74006846       0.68115076      17.72842092  T       1.27898761      -0.07742622       2.32510182      -0.00857411       0.00596425       0.01438887      -8.66206360
Ru       7.92622137       3.90744233      13.17848206  F       0.00000000       0.00000000       0.00000000      -0.21076256       0.85523993       0.34470394      -7.69867563
Ru      -1.68014573       5.25843637      19.93381002  T       0.10704214       1.32555160      -2.40789527       0.01609731      -0.00067481       0.01329294      -8.03317356
Ru       8.42340183       1.23907673      12.92637920  F       0.00000000       0.00000000       0.00000000       0.22084031      -1.53635311       0.31995794      -7.49710035
Ru      -1.27371169       2.52615919      20.01471050  T       0.30281428      -0.30698352      -0.07274746      -0.00196815      -0.01821369      -0.00464884      -7.96555138
Ru       3.15036122      -0.04078844      14.89302582  T      -1.61464219       2.33533967      -2.28396543       0.00354780       0.01655064       0.00658052      -8.84032059
Ru       3.47866394       3.73377994      17.74566115  T      -1.44103817      -0.72556410       0.13168907       0.00587690       0.01219369       0.03851393      -9.04013062
Ru       8.88810166       4.73968204      15.71562788  T       0.43778697       1.13744598       0.06763834       0.01097378      -0.00962477      -0.02548534      -9.34828281
Ru       4.02630368       5.16010703      15.70217551  T      -0.35972829      -0.51940507       1.93428072       0.00618253      -0.00385560      -0.01088591      -9.37984657
Ru      13.24004555       0.66697699      12.92673206  F       0.00000000       0.00000000       0.00000000       0.07448822       0.18691646      -0.48638374      -8.51556492
Ru      -1.04203906       3.99184546      17.53923526  T      -0.96581822       0.11756360      -0.66155069       0.02784649       0.01324159      -0.00371501      -9.41368008
Ru       3.98070836       1.92123463      19.49716536  T       2.00515001       1.80922438      -3.94658211      -0.00050485       0.00646273       0.00689334      -7.85570717
Ru       8.63820014       3.21362244      17.89681472  T       0.55783525       1.75353713       1.14195167      -0.00668763      -0.00060151       0.03181200      -8.71536636
Ru       5.91283369       0.66715997      14.02861214  F       0.00000000       0.00000000       0.00000000      -0.41174135       0.19146477      -0.40388387      -8.47030544
Ru      10.82805811       1.77520412      18.70558539  T       1.54563474      -1.16731024      -4.95036810      -0.02226985      -0.00084296       0.01840925      -7.76662970
Ru      -3.33478893       5.18200354      16.91338018  T       0.02877066      -0.19839416       2.81367164       0.00376914       0.01110901      -0.00049359      -9.40485954
Ru       1.28495865       2.77211391      18.94151851  T       1.28735204       0.01811658       0.15530698      -0.00411892      -0.00398624      -0.00063415      -8.02693558
Ru       6.36923165       4.12556764      16.61283258  T      -1.13287656      -0.66656333      -1.73351971      -0.00792580      -0.00724097      -0.00224735      -9.42402840
Ru       5.70688002       6.82118543      16.81640242  T      -0.15610562       0.51655269       0.62471971      -0.00046033      -0.00642142       0.01107237      -9.45937920
Ru      -3.86938929       7.80622387      16.98208340  T       0.32445240       0.08543058      -1.20829052       0.00424860      -0.01646847       0.00615582      -9.35588551
Ru      -3.22100518      11.11414840      19.43251745  T       2.11086802       0.10147470      -2.36663468       0.00071223       0.00252332      -0.04885578      -8.38972569
Ru       1.20994973       9.05377865      14.78456879  F       0.00000000       0.00000000       0.00000000      -0.70344013       0.92389178      -1.10450065      -8.12792110
Ru       6.23028326      10.19742870      12.58045483  F       0.00000000       0.00000000       0.00000000       0.77907735       0.61927414       0.83557320      -7.31990862
Ru       6.02665806       8.48222733      14.78421593  F       0.00000000       0.00000000       0.00000000       0.88518214       0.32487836       0.31837332      -9.32382584
Ru      -3.60669374       9.62587833      14.78421593  F       0.00000000       0.00000000       0.00000000       0.29090762      -1.30637753       0.23233902      -8.22605038
Ru       0.92152465       7.42808682      16.93750989  T       1.19506819       1.73161973      -1.11667604      -0.00350129       0.00561893       0.00206159      -9.51665401
Ru       1.43607438      10.57645987      19.52449392  T       2.67749420      -2.75945565      -0.45603142      -0.00829864       0.00539687       0.01887754      -8.06130505
Ru      -4.18024244       6.21568289      19.37437620  T      -0.75769482      -1.07043449       0.00373286       0.00107826       0.00486382       0.03041761      -8.90489388
Ru       8.31610083       7.35579313      15.76973963  T       1.07724961       0.35770077       0.51343656       0.01046554       0.00597062      -0.00537500      -9.41080666
Ru      -1.21843866       8.32064515      15.64980236  T       0.34118431      -2.16929218      -1.46273678      -0.00887421      -0.00721497       0.02542625      -9.25507450
Ru       3.54600288       6.30682588      18.23504639  T      -1.43511265      -1.11299241       2.73219603       0.01853740       0.00169328       0.01619573      -8.66305542
Ru       3.72051811       9.62569523      13.68233585  F       0.00000000       0.00000000       0.00000000      -0.14664048       0.94444960       0.33532020      -7.73049116
Ru      -5.87344782      10.95624484      20.42775562  T      -1.88964516       0.39279729      -3.20417082      -0.00140333      -0.00785909       0.00583416      -8.05160713
Ru       4.21769905       6.95732975      13.43023300  F       0.00000000       0.00000000       0.00000000       0.22238392      -1.54762602       0.35336751      -7.49698544
Ru      -5.47276955       8.23088840      20.47835333  T       0.20259963      -0.05376489      -0.86940669       0.00238079      -0.01557125      -0.00042834      -7.90223885
Ru      -1.05171754       5.68189286      15.40566815  T      -1.79197918       0.29497149      -0.76095300       0.00674499       0.01948755       0.00744520      -8.84799099
Ru      -0.66697768       9.50213966      18.28770478  T      -0.37695471      -0.27032762       1.15727686      -0.00979655       0.01619637       0.03138459      -9.06845093
Ru       4.66719068      10.43689630      16.27742840  T       1.62042627       1.54680244       2.53634768       0.01533580      -0.00862303      -0.01737267      -9.35729027
Ru      -0.18064284      10.87595083      16.20524374  T       0.03656838      -2.23388075       1.09423727       0.00824015      -0.00139454      -0.01275568      -9.38645649
Ru       9.03434277       6.38522959      13.43058491  F       0.00000000       0.00000000       0.00000000       0.15266629       0.27496779      -0.58090568      -8.50470448
Ru      -5.23171637       9.71575165      18.03629203  T      -0.94196948      -0.18850205      -1.03244330       0.02873642       0.01168704       0.00384784      -9.40027046
Ru      -0.17796702       7.67158691      20.01926931  T       1.70259273       0.32732331      -5.46911631       0.04722005       0.00934039      -0.01842493      -7.89902973
Ru       4.47306851       8.86205545      18.45390189  T       2.95048434       0.38597957       5.00884334       0.01573610       0.00303224       0.00230011      -9.14316368
Ru       1.70713055       6.38541269      14.53246593  F       0.00000000       0.00000000       0.00000000      -0.42816204       0.15835285      -0.43626341      -8.48463821
Ru       6.66794922       7.47773320      19.22017202  T       2.94143442       0.07201797      -2.85482436      -0.04483849       0.00660896       0.01097441      -7.67300940
Ru      -7.56379006      10.89725725      17.41971758  T       0.38275146       0.00647489       0.54563826       0.00115375       0.01246455       0.00209625      -9.41746330
Ru      -2.90154165       8.51751010      19.46441103  T       1.85198229       0.46703450      -0.28267250      -0.00562990       0.01225713      -0.00971648      -8.07249928
Ru       2.15440416       9.84064647      17.15374524  T      -1.89158285      -1.45934182      -0.67344423      -0.00664990      -0.01602331      -0.01005274      -9.40770054
N        3.25379923       9.68083578      19.91419120  T      -3.19235225      -1.90912344       0.48392433      -0.02042744       0.05828137      -0.04522930      -9.35822105
H        3.58763825       9.63848778      20.89454882  T      -0.65783862      -0.44925309       0.11806760       0.03288491      -0.01311399       0.07386249      -3.87401581
