82
Lattice="14.653685569763184 -3.0000001167615996e-16 -2.204113721847534 -8.411406517028809 11.436505317687988 1.0077073574066162 -0.0 3.5000000656357872e-15 28.464778900146484" Properties=species:S:1:pos:R:3:move_mask:L:1:momenta:R:3:forces:R:3:energies:R:1 adsorbate_info="_JSON {\"site\": {\"coordinates\": [-1.1530700900000004, 6.28998661, 20.42072773], \"connectivity\": 2, \"topology\": [34, 73], \"n_vector\": [0.2626191580550585, -0.19835071760617948, 0.9442924179763205], \"h_vector\": [0.40650492818552075, 0.9089558789927422, 0.09248217885309579], \"site_formula\": {\"Ru\": 2}}, \"smiles\": \"S1S\", \"mdf\": 1.6841598878437392, \"adsorbate_formula\": \"HN\"}" bond_change_count=0 energy=-773.333984375 stress="0.0005574490060098469 -1.810063076845836e-05 -9.204434172715992e-05 -1.810063076845836e-05 0.0005770721472799778 -2.8099777409806848e-05 -9.204434172715992e-05 -2.8099777409806848e-05 9.69451357377693e-05" free_energy=-773.333984375 pbc="T T F"
Ta      10.72976685       0.09530421      14.02861214  F       0.00000000       0.00000000       0.00000000       0.07373961      -0.65184534      -1.81010079     -12.46625519
Ta       1.09641480       1.23895478      14.02861214  F       0.00000000       0.00000000       0.00000000      -1.24433565      -0.33058810       0.33601862     -11.44821548
Ta       1.28596454       4.79161346      16.50823157  T      -3.43926148       1.20721523       3.10262025       0.04255277       0.03171927      -0.00943789     -12.81862450
Ta       6.29121439       2.26241662      18.78322453  T      -2.45536070       0.51856444       1.34249642      -0.04137933       0.00096315       0.00163703     -11.53352833
Ta      11.24726793       3.62582807      17.22014687  T       0.24175648       0.70908692       2.57216901       0.02238792      -0.03082025       0.00754619     -12.18473434
Ta       7.67830788       2.22315129      15.04740941  T      -0.33916397       0.41444070       0.21388637      -0.00132430      -0.00397288      -0.00773561     -12.92145157
Ta      -2.22724967       3.26394590      14.96421938  T      -1.66236337      -1.67766708       0.02668063      -0.01441658      -0.00163198       0.00640768     -11.62545776
Ta       2.60678823       1.18207393      17.64825309  T      -0.26852311      -1.88847232       3.49854161       0.00406298      -0.01059321      -0.03372753     -12.84499836
Ta       3.10928845       4.47929811      13.17848206  F       0.00000000       0.00000000       0.00000000       0.28775889       0.55416387       1.43424201     -11.02974796
Ta       8.00765706       5.82726594      18.21555095  T      -1.61339588       2.97028059       4.52045124      -0.02447987       0.01628101      -0.00103176     -11.80100060
Ta       6.52406359       5.81355715      14.53246593  F       0.00000000       0.00000000       0.00000000       0.06190512      -0.64044905      -1.81705904     -12.47282696
Ta      -3.10928845       6.95720768      14.53246593  F       0.00000000       0.00000000       0.00000000      -1.27166784      -0.39067653       0.25023428     -11.44704151
Ta      -2.82366261      10.52353693      17.01103796  T      -0.78809837       2.00095377      -2.44764509       0.01305744      -0.00606829       0.02923959     -12.83645153
Ta       1.94123847       8.03490538      19.29152241  T      -3.62399985       1.43604848      -1.97547178      -0.02164426       0.01278769      -0.00616360     -11.62229824
Ta       7.02157116       9.35494431      17.70025823  T      -0.41591641       1.00437302       3.06307696      -0.02566367       0.02979894      -0.03546023     -12.18007183
Ta       3.46511833       7.93377374      15.54919009  T       2.74867600       0.00862450      -3.12579228       0.01547094       0.01045423      -0.00254369     -12.90857029
Ta      -6.43388469       8.99688896      15.47617051  T      -0.90555528      -1.02612263      -2.30472082      -0.01495874       0.00718355      -0.00295669     -11.65608406
Ta      -1.59722798       6.81182447      18.17214894  T       1.17096972       1.89253664       3.54177347       0.01211879       0.01595128      -0.03169823     -12.85183716
Ta      -1.09641480      10.19755077      13.68233585  F       0.00000000       0.00000000       0.00000000       0.29642585       0.56297308       1.42358780     -11.03728485
Ta       3.77107735      11.54282889      18.77012297  T      -0.34425752      -1.39796815       4.23958447      -0.03915954       0.08205807       0.03062266     -11.75973988
Ru       9.92093432       1.09262047      16.28976282  T      -0.86837848      -0.40215071      -0.90918828      -0.01110536       0.00944028       0.01251981      -9.45939541
Ru       0.28620159       2.09972675      16.46997395  T      -1.35079050      -1.18716870       2.89351383       0.01636481       0.01603406       0.02239392      -9.36095047
Ru       1.02276260       5.55241691      18.89326356  T       0.35674117       0.61870083       0.51333289       0.03110200       0.02621938      -0.00189905      -8.51871490
Ru       5.41565323       3.33552551      14.28071499  F       0.00000000       0.00000000       0.00000000      -0.81488532       0.89407760      -1.05950928      -8.15015316
Ru      10.43598652       4.47917604      12.07660198  F       0.00000000       0.00000000       0.00000000       0.74508363       0.62057519       0.74445570      -7.31365347
Ru      10.23236179       2.76397467      14.28036213  F       0.00000000       0.00000000       0.00000000       0.90522361       0.27290130       0.34221500      -9.31928635
Ru       0.59900963       3.90762520      14.28036213  F       0.00000000       0.00000000       0.00000000       0.23380369      -1.28371918       0.11256158      -8.23740673
Ru       5.10544806       1.69570019      16.41900790  T       0.00309074       1.78839033      -1.27794359      -0.00955735       0.01141582      -0.04286564      -9.43026161
Ru       5.79846395       4.75763829      19.06510198  T       1.90351559      -0.25813443       0.07893918       0.01735324       0.00757003      -0.00824976      -7.72590637
Ru       0.04619557       0.46006879      18.91772640  T      -0.14316269       2.02917112       0.85951981       0.02626462       0.02816636      -0.04041028      -8.91513634
Ru      12.53494421       1.63285714      15.26983095  T      -0.21491776      -0.35583877      -0.27499235      -0.01316092      -0.00234061       0.03531843      -9.40098095
Ru       2.97530171       2.60795284      15.16932859  T       0.01856590      -1.08901055      -2.55989344       0.01563209       0.03142031       0.02093236      -9.23644638
Ru       7.92722603       0.57577388      17.87278464  T      -1.62732633       0.85676098       2.52125979       0.02279156       0.02124341      -0.01508102      -8.59567738
Ru       7.92622137       3.90744233      13.17848206  F       0.00000000       0.00000000       0.00000000      -0.19434965       0.88065773       0.41069698      -7.70122099
Ru      -1.39749783       5.10734405      20.08987528  T       0.14195285       0.16248612      -1.39033606       0.02015023      -0.01965407       0.00144202      -9.17758465
Ru       8.42340183       1.23907673      12.92637920  F       0.00000000       0.00000000       0.00000000       0.18036333      -1.56875300       0.48031610      -7.51028490
Ru      -1.28849002       2.42537313      20.06783414  T      -0.61582562      -2.20933698       1.03731113      -0.01504880      -0.00678607      -0.01317315      -7.96629524
Ru       3.16490276      -0.01330214      14.89084880  T       1.07099600      -0.71820855      -1.18581807       0.00873625      -0.00924741       0.00957375      -8.84539795
Ru       3.48291764       3.94128110      17.92598045  T      -1.33131505       0.09216847       0.66238282      -0.00185038       0.02768840       0.01540744      -8.89665604
Ru       8.90222737       4.71194164      15.74040742  T       0.20640101       1.64650681       2.01866355      -0.00464620       0.02025443       0.01330593      -9.35078907
Ru       4.00249760       5.13240757      15.72800665  T      -1.23080226      -0.50473750       0.92719035      -0.00035835       0.01078880       0.01384762      -9.33619595
Ru      13.24004555       0.66697699      12.92673206  F       0.00000000       0.00000000       0.00000000       0.03899467       0.12382153      -0.59678817      -8.49718952
Ru      -1.05982202       4.02627871      17.59649862  T      -1.35057091       1.38445339      -0.43006018       0.01018450      -0.02195225      -0.01798341      -9.38319492
Ru       3.98808781       1.94694732      19.46297986  T       0.02649370      -1.61966692      -1.90993564      -0.00928110       0.00676124      -0.00386781      -7.97671413
Ru       8.61201651       3.25009195      17.95597926  T       1.82988655       0.73238599      -0.27928246       0.01079982       0.00718794       0.03346497      -8.80788803
Ru       5.91283369       0.66715997      14.02861214  F       0.00000000       0.00000000       0.00000000      -0.31012636       0.19958833      -0.41623330      -8.49786854
Ru      10.75699215       1.79849385      18.74957779  T       2.02888814       0.02040552      -3.53499865       0.04498649      -0.03016415      -0.07500732      -7.68937731
Ru      -3.34057700       5.16482360      16.89945623  T      -0.92691498      -0.05848276      -0.13295293      -0.03101015      -0.00454110      -0.00459012      -9.36857319
Ru       1.22348587       2.86864346      18.88702711  T       0.57074606       0.64271905       0.11445644      -0.01152202       0.02502578      -0.01051006      -8.03490639
Ru       6.36575609       4.11316927      16.61118523  T      -0.17005192       1.78981223      -0.14589397      -0.00945046       0.01164408      -0.00698531      -9.39133263
Ru       5.70222790       6.79755453      16.78148884  T      -0.46703980       0.64963458       0.19688309      -0.00729293       0.01074618      -0.00946909      -9.45846939
Ru      -3.86347670       7.78739733      16.97148977  T       2.25984386      -0.60835432       1.87695520      -0.00284448       0.00442792       0.02957510      -9.39047813
Ru      -3.12969088      11.19161497      19.40147989  T       1.53100851       1.24801001       0.81307720      -0.00872508      -0.01556887      -0.01470539      -8.46078110
Ru       1.20994973       9.05377865      14.78456879  F       0.00000000       0.00000000       0.00000000      -0.72995317       0.98068738      -1.17787123      -8.12711906
Ru       6.23028326      10.19742870      12.58045483  F       0.00000000       0.00000000       0.00000000       0.72088557       0.65901887       0.85264194      -7.33677292
Ru       6.02665806       8.48222733      14.78421593  F       0.00000000       0.00000000       0.00000000       0.94528431       0.32066831       0.32563514      -9.31233025
Ru      -3.60669374       9.62587833      14.78421593  F       0.00000000       0.00000000       0.00000000       0.22887734      -1.28681087       0.27074915      -8.21986389
Ru       0.89335190       7.40701049      16.90571062  T       0.13586320       0.88957333      -0.07770002       0.00596736      -0.00386731       0.03662349      -9.40437698
Ru       1.63845077      10.50380809      19.61401564  T       1.27794305       0.11122734      -0.73638661       0.00627714       0.03462481       0.00855830      -7.80220270
Ru      -4.04462265       6.11536161      19.39908403  T       0.40077163      -0.19351068       1.09625052      -0.01110128       0.00423993      -0.05086920      -8.84707832
Ru       8.35309848       7.34931619      15.76431062  T       1.52873701       0.45067696      -0.88226465      -0.01465182      -0.00086428       0.02613333      -9.40257931
Ru      -1.23131358       8.32194781      15.67270541  T       1.81914424       0.55671233       0.15279935      -0.00012769       0.01409373       0.01095431      -9.25541306
Ru       3.70404895       6.43891411      18.43007893  T       0.01848863      -1.55439632       1.82118169      -0.00429291       0.03601500       0.01545200      -8.56420612
Ru       3.72051811       9.62569523      13.68233585  F       0.00000000       0.00000000       0.00000000      -0.17387411       0.86549401       0.42713720      -7.70117044
Ru      -5.81145611      10.90026956      20.36073890  T      -1.92775940      -1.95437463      -1.73753485       0.03381026       0.05033602       0.04084122      -7.96277237
Ru       4.21769905       6.95732975      13.43023300  F       0.00000000       0.00000000       0.00000000       0.20101565      -1.59684098       0.53474009      -7.52789783
Ru      -5.48042086       8.15820374      20.44895926  T      -1.13040795      -0.32601828       0.62795854       0.03679240      -0.02038286      -0.01883785      -7.95165825
Ru      -1.05090323       5.68742545      15.43455174  T      -0.91941594      -0.38864988      -1.13327166       0.00749336       0.00074551      -0.01295508      -8.85663891
Ru      -0.57090309       9.41570983      18.31371766  T      -1.49372638      -0.00126399       1.35117543      -0.00096759       0.00572348       0.02885979      -9.07342720
Ru       4.69037483      10.43068661      16.25189532  T       0.69510082      -0.18158488       1.34575715       0.01683235       0.01882284       0.00911662      -9.34877205
Ru      -0.18215385      10.86587138      16.22852418  T       1.10479782      -1.58210890       2.52716540      -0.01223584       0.03124872       0.03054295      -9.36113167
Ru       9.03434277       6.38522959      13.43058491  F       0.00000000       0.00000000       0.00000000       0.05676255       0.18507433      -0.61759365      -8.48179817
Ru      -5.20998385       9.73145402      17.98779087  T       1.13547804      -1.37576180      -1.81902152       0.00784752      -0.01319999      -0.00456971      -9.37994957
Ru      -0.43317660       7.54050780      20.18227110  T       2.70785819      -0.98145367      -3.46899831       0.00649153       0.01364708       0.02568772      -8.96146202
Ru       4.41139655       9.01742930      18.50746579  T      -0.22180824       0.00569723       1.64250172       0.00879549      -0.00025329      -0.00082739      -8.74556351
Ru       1.70713055       6.38541269      14.53246593  F       0.00000000       0.00000000       0.00000000      -0.34390309       0.13041891      -0.48037720      -8.50392532
Ru       6.56727386       7.48723042      19.20404720  T       2.98994289       0.40244593      -2.57779711       0.02182937      -0.01690672       0.01655602      -7.73791885
Ru      -7.54286769      10.91323979      17.42774323  T       1.31610949       1.16066525      -0.35117153      -0.01652499      -0.02102780       0.00164932      -9.42528820
Ru      -2.94452409       8.58038887      19.36903350  T       1.58137837      -0.45962317       0.38792688       0.00683816       0.03578502       0.00065998      -8.02415371
Ru       2.15650106       9.82059372      17.11793504  T       1.50315224       0.38909181      -1.26430352       0.00465549       0.00903795      -0.00899160      -9.45235252
N       -0.90684089       6.26687026      21.52858366  T      -2.23731730       0.43939229      -0.02863741      -0.00176996       0.00426167      -0.06325471      -8.07030487
H       -0.80574898       6.18810481      22.55282476  T       0.53705973      -0.39937106      -0.14612472      -0.01012320      -0.00240660       0.05128863      -3.64378428
