77
Lattice="11.60444164276123 0.0 6.999999919513338e-16 -2.799999967805335e-15 9.899094581604004 3.73103928565979 0.0 0.0 33.57935333251953" Properties=species:S:1:pos:R:3:move_mask:L:1:momenta:R:3:forces:R:3:energies:R:1 adsorbate_info="_JSON {\"site\": {\"coordinates\": [7.73629427, 1.40585887, 21.45347595], \"connectivity\": 1, \"topology\": [34], \"n_vector\": [-0.10366760042460367, -0.3133081139227932, 0.943976193752971], \"h_vector\": [1.0, 0.0, 0.0], \"site_formula\": {\"Sc\": 1}}, \"smiles\": \"Cl\", \"mdf\": 1.7392171104391192, \"adsorbate_formula\": \"H3NO\"}" bond_change_count=3 energy=-331167328.0 stress="6086.99658203125 157.11412048339844 1588.1888427734375 157.11412048339844 9815.529296875 1011.5064086914062 1588.1888427734375 1011.5064086914062 10033.6845703125" free_energy=-331167328.0 pbc="T T F"
Hf       1.93407357       3.56009269      15.85691643  F       0.00000000       0.00000000       0.00000000 -1633584.87500000  242109.59375000 1331002.00000000      -1.59815502
Hf      -0.00000000       8.50963974      15.85691643  F       0.00000000       0.00000000       0.00000000  -32071.26171875  -58456.85546875   57093.87109375      -7.77503872
Hf      -2.10237782       3.38026190      20.17931302  T       0.21402596      -0.13252701      -0.95853810 3569608.00000000 143190784.00000000 -267355264.00000000 -2357393.50000000
Hf      -3.23013418       8.26382771      22.40219767  T       0.93246144       3.64093627       0.49920520  753687.18750000 4017458.50000000  399795.09375000    2617.82812500
Hf      -2.32980992       4.19119189      20.30719307  T       1.45151240       2.58029572      -3.05316687 -8489505.00000000 -96418840.00000000 -182072608.00000000   72939.04687500
Hf      -4.28174345       7.40626646      22.16284135  T      -1.54482869      -3.89005436      -1.33133919  139263.78125000  -56673.05078125 -359043.34375000     177.21090698
Hf       5.80222082       3.56009269      15.85691643  F       0.00000000       0.00000000       0.00000000 3394780.00000000   -9099.00781250 2596709.25000000    3489.83544922
Hf       3.86814713       8.50963974      15.85691643  F       0.00000000       0.00000000       0.00000000   -3241.31665039    1498.13208008    -945.58386230      -7.60221291
Hf       7.93012063      -2.51041661      22.35305024  T      -0.66929612      -0.54341502       1.44291442   -3197.29589844   -6626.09130859    4258.57226562      -6.59871149
Hf       4.21283739      11.73115882      16.27482121  T       1.02798932       0.41216698      -1.11368620    -546.64447021    -401.56222534   -2175.44384766      -1.24609566
Hf       3.87337261       0.73317568      17.67270427  T      -2.06405390       0.41968600      -1.86656675  100089.18750000   29145.56640625   38278.85156250      -7.86589241
Hf       5.93726095       5.09577069      22.56762719  T      -0.67987315       0.99881395      -0.69675177  396550.53125000  -36224.84765625 -444447.56250000     631.64776611
Hf       9.67036819       3.56009269      15.85691643  F       0.00000000       0.00000000       0.00000000  631699.00000000 -2626325.75000000 8481424.00000000    8921.40917969
Hf       7.73629427       8.50963974      15.85691643  F       0.00000000       0.00000000       0.00000000   -1162.05529785  -75538.22656250   65691.82031250      -5.56495047
Hf       9.63137285       3.82883718      20.38909035  T      -1.03865059       1.50134188      -2.20754153 -39710640.00000000 -52954552.00000000 -162914160.00000000  476027.56250000
Hf       8.10077657      12.17543464      18.30358951  T      -1.35723379      -0.86268364      -3.03528482  492536.15625000  150037.43750000 3802988.50000000    2261.62915039
Hf       9.05674035       4.09123383      19.09597434  T       0.93293395       2.78256530      -2.45805467 325097472.00000000 -340261952.00000000 -24897312.00000000 17047554.00000000
Hf      10.52139209      16.67632626      30.65276402  T       1.97825670      -1.65771328      -1.14691468     312.03585815    3824.69311523    7003.23535156      -6.78133059
Sc      -0.00000000       1.40585887      13.99139690  F       0.00000000       0.00000000       0.00000000  -30164.38671875   20657.55468750  102412.12500000      -5.22479248
Sc       1.93407357       6.35540581      13.99139690  F       0.00000000       0.00000000       0.00000000    7572.31494141    1539.41711426   -5803.15429688      -2.09024906
Sc      -2.20826637       3.59462741      16.81798913  T       0.45449530      -0.48963809       1.10055734 7331465.00000000 8402924.00000000 -48571512.00000000   -9667.44335938
Sc      -0.02913846       6.95066144      17.89113723  T       0.53554138       0.20774334      -0.56535917 -1397804.12500000 -4493342.00000000 1065347.62500000    -119.98728180
Sc      -2.54027525       2.92991935      18.86211671  T       1.30128861      -0.29761009       0.08055870 1024052224.00000000 -1469716224.00000000 4116067328.00000000 -425286176.00000000
Sc      -2.34958380       3.87043862      21.96982195  T      -0.42130622       0.12056725       0.11100201 5311660.50000000  879885.50000000 -7785890.00000000    1998.33471680
Sc       3.86814713       1.40585887      13.99139690  F       0.00000000       0.00000000       0.00000000   -1571.10913086   -3557.06347656   -5982.60888672       0.21746016
Sc       5.80222082       6.35540581      13.99139690  F       0.00000000       0.00000000       0.00000000    2773.29345703   -4214.11523438     459.23510742      -6.44018221
Sc       4.62386467      -1.39774396      14.29316934  T      -0.54361837      -0.39126613       0.01191899   -7840.99121094    9268.99023438    3242.74096680      -5.36018801
Sc       5.58068768       1.59537707      19.50854857  T       0.18270272       0.57703510       0.71305574 6624258.50000000 1558597.37500000 -796728.62500000    4766.57861328
Sc       3.27224888       0.15959512      28.40413980  T      -1.17286895       0.22755883      -0.60573016      -1.68735766       0.22438532       2.78575158      -2.13101149
Sc       3.03386209      -4.84831513      22.59627047  T       0.56179075       0.07646448      -1.02412423     587.33648682      -4.56683159    1046.80126953      -2.72279501
Sc       7.73629427       1.40585887      13.99139690  F       0.00000000       0.00000000       0.00000000  196079.87500000  252298.09375000  773363.93750000     171.90516663
Sc       9.67036819       6.35540581      13.99139690  F       0.00000000       0.00000000       0.00000000   58108.64062500   -1562.29101562   80669.38281250      -5.30230045
Sc       8.66105660       4.25210739      19.03995366  T       0.47778229      -0.31441755      -0.61117122 97375808.00000000 -112115264.00000000 -374392.00000000 1334938.87500000
Sc       9.84270390       4.08915136      18.85959640  T       0.57353020      -0.12939000      -0.29259502 -15195968.00000000 122206496.00000000 -76461552.00000000 97995992.00000000
Sc       9.50399195       2.88334264      23.15267791  T      -0.16017015      -0.96763101      -3.90916523  363576.93750000 -653975.87500000 -8555249.00000000    -638.85064697
Sc      12.57225728       2.52621900      16.10292857  T      -0.10449240      -0.44389020       0.56645885 -5273880.00000000 1252383.37500000 4509078.00000000     219.85171509
Si       1.93407357       0.80531353      12.12587738  F       0.00000000       0.00000000       0.00000000    1629.18005371     629.31036377   -2772.42529297      -4.91919327
Si      -0.00000000       4.12782955      13.99139690  F       0.00000000       0.00000000       0.00000000  -28874.06835938   15022.31542969  319181.62500000      -4.88402748
Si      -0.00000000       5.75486040      15.85691643  F       0.00000000       0.00000000       0.00000000 -1026663.43750000 -1127543.12500000 1605013.25000000     -76.45207214
Si       2.99845581       6.70126477      20.62163570  T      -0.34718253       0.08936169      -1.18761849  -10376.96191406   -2966.47216797   10176.27734375      -3.93726087
Si       1.93407357       0.80531353      15.85691643  F       0.00000000       0.00000000       0.00000000  -97989.54687500   92706.32812500   75835.39843750      -3.82133079
Si       2.84456553       6.13134160      18.55826683  T      -0.42872949       0.27545371      -0.09622874 -253423.60937500 -127736.57812500    4860.46972656      -5.11268044
Si      -0.73023472       5.41050282      23.43282438  T       0.09126174       0.20708940      -0.03835909 -622050.56250000 -965963.18750000 -1485588.50000000     -90.26264954
Si       0.05079699       8.96960414      21.62208400  T      -0.35082757      -0.42652000      -0.40128001 -1402498.62500000 1828489.00000000  488147.09375000      60.72956848
Si       5.49270671       5.11359115      17.36242447  T      -0.30466008      -0.72582485       0.02522372 3477704.25000000 -1468498.37500000 1641965.00000000     -74.21607208
Si      -1.22454968       3.13994029      22.64569274  T       0.62249466      -0.61840010       0.80285574 -3405892.25000000 -444075.40625000 -5021732.50000000   -9595.64355469
Si       0.04098720       6.51974227      23.54600259  T       0.41261908      -2.07476523       1.03514991  -85402.85156250 -131808.14062500 -184252.64062500       1.66998816
Si       3.85127143      13.10687150      24.06790678  T       0.66986609       1.04642641      -0.40008899  192657.43750000   -2349.78002930 -109860.29687500      -3.69192076
Si       5.80222082       0.80531353      12.12587738  F       0.00000000       0.00000000       0.00000000    1561.75146484     294.42364502     446.42453003      -3.58009291
Si       3.86814713       4.12782955      13.99139690  F       0.00000000       0.00000000       0.00000000    -634.89819336    1743.70300293   -7041.44238281      -5.25216818
Si       3.86814713       5.75486040      15.85691643  F       0.00000000       0.00000000       0.00000000   10843.30468750   -2834.50585938   10058.06152344      -5.31779051
Si       8.61382080      12.80113462      20.57763143  T      -0.34373969       0.76013272      -0.96754493 -2422979.25000000 -4512901.00000000 2869962.25000000  598513.75000000
Si       5.80222082       0.80531353      15.85691643  F       0.00000000       0.00000000       0.00000000 1099965.62500000  497685.28125000 1063331.12500000     326.39587402
Si      -1.73443210       3.63904240      19.07974359  T       0.13937300      -0.08164046       0.11096442 -26607904.00000000 207024288.00000000 210921152.00000000 2300300.00000000
Si       3.37401779       0.23362090      24.38712800  T      -0.04780895      -0.08669225       0.18883426     297.18151855    -339.80960083     446.02468872      15.11891937
Si      10.20882687       8.97104281      22.70240369  T       0.14254546       0.51516152      -0.19103272 -609534.75000000 3111358.75000000   65421.53125000    -236.06698608
Si       6.34415824       4.64880620      17.50314646  T      -0.01814686      -0.50154320       0.00692590 4098696.50000000 -3623326.00000000 -336253.78125000  -10692.79101562
Si       1.64343149      -1.97255965      20.68637093  T      -0.20808914      -0.31492972       0.80022182    -790.66912842   -1773.60949707     793.36920166      -3.81633663
Si       2.33486953       0.22292457      24.61846862  T       0.02215735      -2.41484031       0.05968819    3088.44360352   -1667.72363281    2263.58422852       9.83403015
Si       3.68845720      12.54910155      19.53779386  T       0.12604061       0.89836205      -0.15140950  -31839.61328125      46.79106140    1237.16796875      -2.59956217
Si       9.67036819       0.80531353      12.12587738  F       0.00000000       0.00000000       0.00000000   -2984.57177734    -666.71441650  -11848.05273438      -4.63321590
Si       7.73629427       4.12782955      13.99139690  F       0.00000000       0.00000000       0.00000000 -158337.32812500  -25398.00781250  260126.95312500     160.21693420
Si       7.73629427       5.75486040      15.85691643  F       0.00000000       0.00000000       0.00000000 1633903.00000000 -3266654.00000000 4400489.00000000    -461.34378052
Si       8.09241274       7.24379279      14.78131045  T       0.45433572       0.32727210      -0.99834511    1160.50195312 -114972.46875000  143349.17187500       3.91402578
Si       9.67036819       0.80531353      15.85691643  F       0.00000000       0.00000000       0.00000000 -784488.68750000 4008138.00000000 4082144.25000000   -2015.59423828
Si       9.45412159       3.34931829      19.00104463  T      -0.50363710      -0.07779430      -0.45301303 -1187823232.00000000 -681496256.00000000 -394046208.00000000 -22709798.00000000
Si       1.86179044       6.58310238      15.53585839  T       0.34807163       0.24405603      -0.27179597  -24905.96289062  -36704.35937500   29221.45898438       2.21615362
Si       9.01980532      12.65121898      22.61543433  T       0.19470388      -0.06423087       0.00074122 -185815120.00000000 2248347136.00000000 -3169014272.00000000  345228.37500000
Si       4.88189588       0.00524034      23.99345152  T       0.45817955      -0.32917844       0.27241007      48.19113541    -286.99395752     352.71145630      -1.40696478
Si       9.69689782       6.51083891      18.72157022  T       0.50665080      -0.43969641       0.51151657 2141850.00000000 18548080.00000000 -2586833.50000000  -37626.37500000
Si       4.58819402      15.27615335      23.06672144  T       0.27462186      -2.20158136       1.08062409  813177.50000000  -50191.96484375 -212709.03125000      73.04373169
Si       9.53037240       9.58373013      26.88726206  T       0.15474284       1.03244679       0.08204427  -21015.75000000  129407.78125000 -377517.34375000     180.84828186
N       10.25494105      -0.28954465      23.28287353  T      -2.01472242       1.92467427       6.31117127   60488.20312500 -117161.96875000  227272.34375000      16.96573448
O        9.30230702       2.88394095      21.20091046  T       0.42887816       2.88253410      -0.36248486 -347831.34375000 9295366.00000000 -4276506.50000000 -948733.18750000
H        7.55288147       6.74178047      28.21222202  T       0.01523916      -0.14488785       0.70733150     -10.01687241      -7.42108345     -16.98930740      -2.63262486
H       18.65161870       5.80388888      19.52949796  T      -0.09283990       0.34921719       0.20724367 -1244094.12500000  389376.75000000 -1213790.25000000     707.59478760
H       10.01745822       2.86977775      21.97483283  T       0.04420153      -0.31187188      -0.42776103 -4826870.00000000 1506604.12500000 -8121349.00000000    8000.96435547
