77
Lattice="11.60444164276123 0.0 6.999999919513338e-16 -2.799999967805335e-15 9.899094581604004 3.73103928565979 0.0 0.0 33.57935333251953" Properties=species:S:1:pos:R:3:move_mask:L:1:momenta:R:3:forces:R:3:energies:R:1 adsorbate_info="_JSON {\"site\": {\"coordinates\": [5.80222082, 3.56009269, 23.31899452], \"connectivity\": 1, \"topology\": [10], \"n_vector\": [-0.1277492053821044, -0.14775258265712496, 0.9807391675886052], \"h_vector\": [1.0, 0.0, 0.0], \"site_formula\": {\"Hf\": 1}}, \"smiles\": \"Cl\", \"mdf\": 1.7392171104391174, \"adsorbate_formula\": \"H3NO\"}" bond_change_count=0 energy=-547.61328125 stress="0.00022034866560716182 4.743837507703574e-06 -6.641025265707867e-06 4.743837507703574e-06 0.0002558617852628231 6.668827700195834e-05 -6.641025265707867e-06 6.668827700195834e-05 6.444421887863427e-05" free_energy=-547.61328125 pbc="T T F"
Hf       1.93407357       3.56009269      15.85691643  F       0.00000000       0.00000000       0.00000000      -0.01775346       0.07219815       0.40718129     -10.29825497
Hf      -0.00000000       8.50963974      15.85691643  F       0.00000000       0.00000000       0.00000000      -0.00712468       0.33372813      -0.01638302      -9.61615372
Hf       1.91696348       3.60730769      19.54435697  T       1.33667663      -1.13886255      -1.81182974       0.03380762      -0.00861669      -0.01099535     -10.38848209
Hf      -0.00168006       8.58133736      19.52926916  T      -1.37098596       0.53814163       1.28316685       0.00571566      -0.02993158      -0.00685696     -10.38080311
Hf       1.94619027       3.81197902      23.09525329  T       0.69538553       2.32376188      -3.75263749       0.00455084      -0.03161642       0.00824600      -9.13735294
Hf      -0.01421075       8.51302684      23.24149370  T       2.51553434       0.72456931      -0.89484264       0.00844956      -0.00164801       0.00277395     -10.16711998
Hf       5.80222082       3.56009269      15.85691643  F       0.00000000       0.00000000       0.00000000      -0.00824955       0.08961356       0.40548950     -10.29531384
Hf       3.86814713       8.50963974      15.85691643  F       0.00000000       0.00000000       0.00000000      -0.00240712       0.33246726      -0.02195382      -9.61530495
Hf       5.80584843       3.62032164      19.55714151  T       0.24986881      -1.03900262      -1.66822710       0.00284077       0.00247526      -0.01599195     -10.40310001
Hf       3.86257485       8.58406791      19.53429101  T      -0.26665023      -0.50052937      -2.72185264      -0.00554786      -0.02757964      -0.01676096     -10.38471508
Hf       5.80874438       3.81881442      23.12243540  T      -1.53590694      -1.43442455      -7.39338613      -0.00235879      -0.04817813       0.00655705      -9.85771942
Hf       3.86414248       8.52076985      23.23169381  T      -0.14183343       0.08004263      -0.38309102      -0.00787152       0.00472972      -0.01016025     -10.17612648
Hf       9.67036819       3.56009269      15.85691643  F       0.00000000       0.00000000       0.00000000      -0.03316386       0.07820162       0.39142284     -10.29813576
Hf       7.73629427       8.50963974      15.85691643  F       0.00000000       0.00000000       0.00000000      -0.00743172       0.33282465      -0.02748573      -9.61657143
Hf       9.65745332       3.61559409      19.54854069  T      -0.92272255       1.92732910       0.44226175      -0.00469876       0.00214997       0.00158301     -10.37955570
Hf       7.73375174       8.58214078      19.53283741  T       1.08638053       1.21262031       0.44832176       0.00505795      -0.02327795       0.00999259     -10.39765739
Hf       9.57800326       3.76048142      23.18891821  T      -3.46898145       4.16562794      -0.79277801       0.05088818      -0.02521592      -0.00257266     -10.41516590
Hf       7.73178543       8.55779133      23.21418940  T      -1.43304908      -1.20800905      -2.71348289       0.00041682      -0.03448814      -0.00379312     -10.21169472
Sc      -0.00000000       1.40585887      13.99139690  F       0.00000000       0.00000000       0.00000000      -0.00098250       0.20395219       0.22220227      -7.20669365
Sc       1.93407357       6.35540581      13.99139690  F       0.00000000       0.00000000       0.00000000      -0.00115884      -0.62604725       0.67229414      -6.27329254
Sc      -0.00170879       1.41954997      17.67539177  T       0.65096205       0.59325920       0.37506448       0.00236825       0.01463628      -0.00117148      -7.19990444
Sc       1.92884429       6.37885433      17.64848929  T       0.19858455       0.02200931       0.21658525      -0.00162013      -0.00174414      -0.00266083      -7.16760635
Sc       0.00056894       1.45383463      21.41475753  T      -0.12888154       0.10378661       0.54864011       0.00574881      -0.00491538       0.00883795      -6.80811119
Sc       1.91284644       6.43157134      21.30517390  T       0.10246402       0.94691253      -0.54454759       0.00820598      -0.01172769       0.03004624      -7.21818686
Sc       3.86814713       1.40585887      13.99139690  F       0.00000000       0.00000000       0.00000000      -0.00161464       0.20513776       0.22385854      -7.20613098
Sc       5.80222082       6.35540581      13.99139690  F       0.00000000       0.00000000       0.00000000      -0.00083245      -0.62666839       0.67162347      -6.27207994
Sc       3.86296349       1.42215276      17.67559999  T       0.16497564       0.54591724       0.48478172      -0.00262899       0.02296393      -0.01021032      -7.20196915
Sc       5.80314855       6.38116575      17.65286880  T       0.45086473      -0.85373150      -0.90177242      -0.00395202      -0.01158872      -0.00439520      -7.17378616
Sc       3.87749802       1.46627446      21.42929064  T       0.52748628       0.42580276       0.04247224      -0.00783110      -0.00345644       0.02090964      -6.84761906
Sc       5.78240409       6.41739727      21.31922462  T      -0.15975171      -0.99490618      -0.45519135       0.02122837      -0.00213759       0.02669292      -7.26198864
Sc       7.73629427       1.40585887      13.99139690  F       0.00000000       0.00000000       0.00000000      -0.00116904       0.20746824       0.22344060      -7.20702028
Sc       9.67036819       6.35540581      13.99139690  F       0.00000000       0.00000000       0.00000000      -0.00017127      -0.62545907       0.67116702      -6.27415085
Sc       7.73401742       1.43080509      17.66635649  T       1.25068646      -0.27134028      -0.65276857       0.00582601       0.00446858       0.00822175      -7.19040394
Sc       9.66301640       6.37992920      17.64674538  T      -0.45080340       0.18216375      -0.79596177       0.01813232      -0.00719111       0.01928381      -7.17044926
Sc       7.72411594       1.50796042      21.42061489  T      -0.00373060      -0.50845858       1.26547110       0.00498873      -0.00453176       0.01792088      -6.79111290
Sc       9.68430384       6.41793367      21.32420602  T       0.62622330      -0.98365214       0.38907140       0.00602934      -0.02828410       0.00115366      -7.24904251
Si       1.93407357       0.80531353      12.12587738  F       0.00000000       0.00000000       0.00000000       0.00068589      -0.98606426      -0.05364355      -4.51963806
Si      -0.00000000       4.12782955      13.99139690  F       0.00000000       0.00000000       0.00000000      -0.00124513       0.97847980      -0.23558728      -5.08978748
Si      -0.00000000       5.75486040      15.85691643  F       0.00000000       0.00000000       0.00000000      -0.01739236       0.06709085      -0.65041077      -6.48720264
Si       1.93435869       9.10564082      17.65386749  T      -0.48598716      -0.00057303      -0.69326099      -0.00867331      -0.00426093       0.00056959      -6.67870903
Si       1.93407357       0.80531353      15.85691643  F       0.00000000       0.00000000       0.00000000      -0.01663572       0.05952091      -0.35887274      -6.42878675
Si      -0.00998802       4.14929349      17.69258022  T      -0.02924990       0.32436154       0.15390433       0.01989682      -0.00082679       0.00418280      -6.58764315
Si      -0.01020254       5.80797299      19.48797947  T       0.28112138       0.08767956       0.22384846      -0.00739246      -0.00852235       0.00595919      -6.45070934
Si       1.92425373       9.12441738      21.42178805  T       0.40560400       0.76692012      -0.01521773       0.00866619       0.02061903      -0.01554896      -6.54864883
Si       1.92880051       0.87138953      19.52544220  T       0.84864323      -0.45732457       0.74523149       0.00981163       0.01417212      -0.00108190      -6.53254414
Si       0.00208395       4.20332551      21.36418080  T      -0.00290512       0.16767489       1.13832117      -0.03032623       0.02398317       0.02944476      -6.54816771
Si      -0.00727968       5.71720576      23.26328499  T       0.50928513      -1.93904122       1.21757191       0.00408082      -0.01850132      -0.00805515      -5.17702484
Si       1.93231248       9.28165474      25.08538129  T      -0.14988504       0.90554582       0.12854014      -0.00262840       0.02941158      -0.00533260      -4.63864040
Si       5.80222082       0.80531353      12.12587738  F       0.00000000       0.00000000       0.00000000      -0.00073092      -0.98537278      -0.05411074      -4.51926804
Si       3.86814713       4.12782955      13.99139690  F       0.00000000       0.00000000       0.00000000       0.00073084       0.97808778      -0.23453003      -5.09054041
Si       3.86814713       5.75486040      15.85691643  F       0.00000000       0.00000000       0.00000000       0.00119884       0.07517576      -0.63834447      -6.48774576
Si       5.80179314       9.10589042      17.65358658  T      -0.00025566      -0.62907316      -0.55838326      -0.01342486      -0.00740279       0.01792775      -6.67649555
Si       5.80222082       0.80531353      15.85691643  F       0.00000000       0.00000000       0.00000000      -0.03356761       0.07010573      -0.38516155      -6.42870045
Si       3.86498797       4.15614371      17.69564105  T      -0.08194749       0.73193617      -0.00512650       0.01070352      -0.03584044       0.02576875      -6.58602858
Si       3.85805715       5.81688626      19.48837641  T       0.04029527      -0.19337228       0.31983549       0.01089547      -0.02138895       0.00949937      -6.45204163
Si       5.79365967       9.12322020      21.41168499  T       0.18943341       0.45309786       0.14584850       0.00655862      -0.00235224       0.00030444      -6.55319262
Si       5.80143910       0.88520528      19.51395904  T       0.64148706      -0.09386003       0.09595995       0.00651966      -0.00456526       0.02309925      -6.53264523
Si       3.84714242       4.21307114      21.33965118  T      -0.53183876       0.56946178       0.95809999      -0.01550348       0.01831909      -0.02925428      -6.56619930
Si       3.84409036       5.74292234      23.22690584  T       0.16946081      -1.56655844       0.93973346       0.01461475       0.01700673       0.02102440      -5.19002628
Si       5.80403837       9.29093505      25.07241595  T       0.58775668       0.47776570      -0.86595415       0.01766499      -0.00773224       0.01416054      -4.64187336
Si       9.67036819       0.80531353      12.12587738  F       0.00000000       0.00000000       0.00000000      -0.00031085      -0.98760366      -0.05152509      -4.51946354
Si       7.73629427       4.12782955      13.99139690  F       0.00000000       0.00000000       0.00000000      -0.00338429       0.97840536      -0.23681769      -5.09110785
Si       7.73629427       5.75486040      15.85691643  F       0.00000000       0.00000000       0.00000000      -0.01747984       0.07546189      -0.65375352      -6.48916912
Si       9.66813515       9.10550581      17.65419037  T       0.37266033       0.10576684      -1.00030173       0.00867855      -0.00214033       0.00175267      -6.67711496
Si       9.67036819       0.80531353      15.85691643  F       0.00000000       0.00000000       0.00000000       0.00847740       0.06173710      -0.38676614      -6.42888451
Si       7.73262354       4.15991193      17.69892688  T      -0.13910011       0.59916603       0.31919586      -0.00000846      -0.00647385      -0.01898071      -6.59189510
Si       7.73552779       5.81401616      19.50877487  T       0.19960625       0.00916271       0.17101892       0.00309544       0.00814330      -0.01477764      -6.46808672
Si       9.67070791       9.12179526      21.41146813  T      -0.48571559      -0.02348057      -0.12619619       0.00397473       0.00670996       0.00563762      -6.55336905
Si       9.66366093       0.88262671      19.51518935  T       0.48952617      -0.66600566       0.14728106      -0.00581567       0.00130587       0.01813520      -6.52923918
Si       7.72962176       4.22551379      21.39666543  T      -0.04329509      -0.29516550       2.01240311      -0.01535075      -0.02010560      -0.02816236      -6.41886377
Si       7.76318721       5.78031367      23.19044068  T       0.51131797      -1.46832810      -0.78008836      -0.02672536       0.03803244      -0.00474927      -5.19319820
Si       9.65063704       9.29938534      25.07854596  T       0.42466879       0.78863052      -0.28958218       0.00687637      -0.00487655       0.00758271      -4.64171696
N        6.96797617       4.16493929      24.98541547  T       2.22623499       0.87446234       5.00197152      -0.01224789       0.01010784       0.05590633      -9.60108566
O        8.18982045       3.69922467      24.62753155  T       0.89371751       2.04219304      -0.69179019       0.05663419       0.01799115      -0.07743657      -5.73839664
H        7.08910711       5.13164711      25.35117230  T       0.51675747      -0.11590434       0.76229526      -0.03136395      -0.07851283      -0.00809610      -3.21740389
H        6.66051408       3.53205589      25.75295818  T       0.55719795      -0.08261753       0.38914745       0.01524156      -0.06005315       0.00982487      -3.22148085
H        8.46240456       2.98448488      25.31341691  T      -0.33508321      -0.36006738      -0.19436905      -0.02048594      -0.02998188       0.00071132      -3.06223226
