77
Lattice="11.60444164276123 0.0 6.999999919513338e-16 -2.799999967805335e-15 9.899094581604004 3.73103928565979 0.0 0.0 33.57935333251953" Properties=species:S:1:pos:R:3:move_mask:L:1:momenta:R:3:forces:R:3:energies:R:1 adsorbate_info="_JSON {\"site\": {\"coordinates\": [3.8681471949999993, 3.56009269, 23.31899452], \"connectivity\": 2, \"topology\": [4, 10], \"n_vector\": [0.19469764765664554, -0.2355061635748092, 0.9521710313358855], \"h_vector\": [1.0, 0.0, 0.0], \"site_formula\": {\"Hf\": 2}}, \"smiles\": \"S1S\", \"mdf\": 1.0998616830171382, \"adsorbate_formula\": \"H3NO\"}" bond_change_count=0 energy=-547.682373046875 stress="0.00020310637773945928 6.287751602940261e-06 1.146652448369423e-05 6.287751602940261e-06 0.00026906310813501477 4.137845826335251e-05 1.146652448369423e-05 4.137845826335251e-05 6.28867928753607e-05" free_energy=-547.682373046875 pbc="T T F"
Hf       1.93407357       3.56009269      15.85691643  F       0.00000000       0.00000000       0.00000000       0.02266234       0.07235724       0.38696519     -10.29970169
Hf      -0.00000000       8.50963974      15.85691643  F       0.00000000       0.00000000       0.00000000       0.00516652       0.32129717      -0.00271556      -9.61464882
Hf       1.92618701       3.61507168      19.54183328  T       1.23456054       2.69322702       2.25261987       0.02850085      -0.02574000       0.00275821     -10.39961147
Hf       0.01006677       8.57141039      19.52818629  T       1.99221348      -0.02057387      -1.41775075      -0.01708410       0.00175381      -0.01407555     -10.36964321
Hf       1.91964250       3.70413869      23.13348222  T      -9.00885275       1.36775428      -5.86704610       0.00496268      -0.00745563       0.03275770      -9.80106449
Hf       0.00314741       8.48741094      23.22405613  T      -2.51892070       1.24116440      -0.78075808       0.00582307       0.00005609      -0.00263928     -10.16985035
Hf       5.80222082       3.56009269      15.85691643  F       0.00000000       0.00000000       0.00000000      -0.02463592       0.04294974       0.38690025     -10.30727196
Hf       3.86814713       8.50963974      15.85691643  F       0.00000000       0.00000000       0.00000000       0.02091153       0.32743335      -0.01073432      -9.61608505
Hf       5.81738461       3.57154154      19.51940870  T      -1.70537378      -0.33912446       2.17696839       0.00662864       0.02643000       0.00673287     -10.37192059
Hf       3.87364198       8.57032645      19.52895082  T       0.12485477      -1.61356103      -0.20312812       0.01776641      -0.01033443       0.00398871     -10.38121891
Hf       5.81794025       3.66600960      23.25658499  T       5.06443863      -4.93458053      -1.36025908      -0.01054227      -0.00081966       0.08140612     -10.90265179
Hf       3.87495566       8.49880394      23.25637927  T      -0.21131741       0.61805999       2.12719637       0.01615153       0.00962535      -0.01490704     -10.26711464
Hf       9.67036819       3.56009269      15.85691643  F       0.00000000       0.00000000       0.00000000       0.00249221       0.04568672       0.37415910     -10.30904961
Hf       7.73629427       8.50963974      15.85691643  F       0.00000000       0.00000000       0.00000000       0.01221291       0.32174116      -0.01081571      -9.61405182
Hf       9.65836914       3.58274159      19.51794430  T      -0.18501260       0.04980033       0.10113206       0.01001757      -0.00533855       0.02039587     -10.37830257
Hf       7.73431272       8.56371327      19.53865055  T      -1.14163515      -0.36670019      -0.00557238       0.00926420      -0.00322625      -0.01435251     -10.38391304
Hf       9.69916288       3.76337891      23.11803309  T      -0.38633971       1.88141920      -2.57246189       0.00738081      -0.00464796      -0.04393816      -9.13292122
Hf       7.79518756       8.48600546      23.21464747  T      -0.20370650       1.61861182      -4.36725218      -0.01457104      -0.00108814      -0.01431520     -10.16679192
Sc      -0.00000000       1.40585887      13.99139690  F       0.00000000       0.00000000       0.00000000       0.00031048       0.18971923       0.22357149      -7.20650148
Sc       1.93407357       6.35540581      13.99139690  F       0.00000000       0.00000000       0.00000000       0.00026682      -0.62579876       0.67115474      -6.27206039
Sc       0.00148294       1.41474638      17.66983523  T      -0.33224090      -0.57715755       0.61506543       0.00813778       0.00717410       0.01577938      -7.19825840
Sc       1.94652868       6.37165521      17.65439434  T       0.64463778       0.09642195       0.22119035      -0.00336240      -0.00224881       0.00057630      -7.15946531
Sc      -0.00173382       1.41487654      21.42143692  T      -0.37026716      -0.89628602       1.03693886       0.00112719      -0.01652596       0.00713941      -6.83075428
Sc       1.89178189       6.43532261      21.30329818  T      -1.32231799       0.17749758      -0.79434596      -0.03586611       0.03143417      -0.00747983      -7.27606297
Sc       3.86814713       1.40585887      13.99139690  F       0.00000000       0.00000000       0.00000000       0.00471692       0.19273055       0.22130400      -7.20369196
Sc       5.80222082       6.35540581      13.99139690  F       0.00000000       0.00000000       0.00000000       0.00176571      -0.62477767       0.66994214      -6.27353954
Sc       3.87996067       1.41211819      17.67674835  T       0.40703598      -0.16032888      -0.19690882      -0.02504950      -0.00988498       0.00876720      -7.19167423
Sc       5.80222779       6.37271886      17.65082980  T       0.01976258      -0.68378584       0.22391683       0.01135793       0.00499563      -0.00875639      -7.16665173
Sc       3.90820812       1.44180493      21.44695058  T      -0.05735955      -0.32464873       0.80994711      -0.01785233      -0.01165610       0.01284663      -6.82127285
Sc       5.82424790       6.34756439      21.36037906  T      -0.24314266      -1.13623658      -1.54381840      -0.01134747      -0.00456502       0.01773495      -7.29207563
Sc       7.73629427       1.40585887      13.99139690  F       0.00000000       0.00000000       0.00000000       0.00109774       0.17989957       0.22898819      -7.20461321
Sc       9.67036819       6.35540581      13.99139690  F       0.00000000       0.00000000       0.00000000       0.00016842      -0.62594742       0.67104769      -6.27184439
Sc       7.73075426       1.40515856      17.67781267  T       0.29635501      -0.55204022       0.37878173      -0.00479810      -0.01880229       0.00179541      -7.19591856
Sc       9.66931172       6.36928602      17.65859303  T       0.13461988       0.29182375      -0.62035824      -0.00127768       0.01565459      -0.03145145      -7.17504406
Sc       7.75425812       1.39643191      21.40397215  T       0.28518973      -0.79471313       0.23286522       0.00790024       0.01646836       0.02329563      -6.82609129
Sc       9.68598658       6.40215897      21.30586400  T       0.35630881      -0.99655842      -0.92738429       0.00094368       0.00528169      -0.00719519      -7.21600437
Si       1.93407357       0.80531353      12.12587738  F       0.00000000       0.00000000       0.00000000       0.00137283      -1.00199234      -0.03800306      -4.51876068
Si      -0.00000000       4.12782955      13.99139690  F       0.00000000       0.00000000       0.00000000       0.00264031       0.98006415      -0.23550323      -5.08843470
Si      -0.00000000       5.75486040      15.85691643  F       0.00000000       0.00000000       0.00000000       0.00892303       0.08605117      -0.62712014      -6.48527670
Si       1.93720084       9.10042603      17.65461671  T       0.04571054      -0.30470231      -0.58370141       0.00400743       0.01418202      -0.00856368      -6.68065643
Si       1.93407357       0.80531353      15.85691643  F       0.00000000       0.00000000       0.00000000       0.04023048       0.05616055      -0.38988861      -6.42630386
Si      -0.00204961       4.14886187      17.68845530  T       0.47095806       0.25813435      -0.35748481       0.02816411      -0.02975236      -0.01004971      -6.58161926
Si       0.01356172       5.79853703      19.48928596  T      -0.32391931      -0.31478135      -0.36698708      -0.03733760      -0.01432078      -0.01085960      -6.44332218
Si       1.94431075       9.13636302      21.41768140  T       0.11564904      -0.12018680      -0.03712786       0.00302886       0.01749545       0.02142876      -6.55937529
Si       1.94387097       0.88717813      19.52324470  T      -0.06779706      -0.32166332      -0.02642634      -0.01115888      -0.01919883       0.02218256      -6.51838779
Si      -0.04755445       4.17650671      21.32903201  T      -0.74413481      -0.57103294       0.59214168      -0.02664258      -0.00024691       0.01379474      -6.54322243
Si       0.02088786       5.68628858      23.23490344  T       0.25688015      -2.57605978       1.57370200       0.00605404      -0.01909710       0.02411436      -5.21872330
Si       1.93907141       9.27901778      25.06648821  T       0.06771895       1.56425938      -0.48721478      -0.02910414       0.02221707      -0.01997381      -4.64745235
Si       5.80222082       0.80531353      12.12587738  F       0.00000000       0.00000000       0.00000000       0.00236871      -1.00224900      -0.03744459      -4.51842117
Si       3.86814713       4.12782955      13.99139690  F       0.00000000       0.00000000       0.00000000      -0.00250316       0.98017806      -0.23932818      -5.09036779
Si       3.86814713       5.75486040      15.85691643  F       0.00000000       0.00000000       0.00000000       0.01259152       0.05232660      -0.63770300      -6.48751783
Si       5.80603527       9.10212484      17.65623987  T      -0.28234630       0.71983656      -0.62321929      -0.01098744       0.00600749      -0.00146631      -6.67791939
Si       5.80222082       0.80531353      15.85691643  F       0.00000000       0.00000000       0.00000000       0.01486171      -0.07006002      -0.30575174      -6.42999744
Si       3.87047338       4.14599098      17.70091779  T       0.16867109      -0.45152233       0.10199732       0.00322319      -0.00228482       0.00513157      -6.59763908
Si       3.90361723       5.79791750      19.50847607  T      -0.16988630      -0.32896406       0.03208114      -0.00889031      -0.00300620      -0.00548267      -6.44186497
Si       5.80635639       9.07538232      21.42896898  T      -0.24555402      -0.24112890       0.06664184       0.00973441      -0.02748195      -0.00361746      -6.54703522
Si       5.78697828       0.80087469      19.52893088  T       0.23501216      -0.26648270       0.60435350       0.02028164      -0.03133376       0.03181864      -6.52444458
Si       4.01437969       4.14766624      21.42602865  T       1.78431025      -2.92099452      -3.22714806      -0.08241159      -0.00476316      -0.04184183      -5.86942482
Si       3.82711048       5.72407219      23.22631730  T      -1.51533351       5.31239420       1.99751604       0.02156889       0.00697599       0.02572417      -5.23243999
Si       5.88311322       9.24159646      25.15820575  T       0.42463514       1.01587043      -0.45035105      -0.03827649      -0.01408446      -0.03534295      -4.39856911
Si       9.67036819       0.80531353      12.12587738  F       0.00000000       0.00000000       0.00000000      -0.00227072      -1.01301384      -0.02666184      -4.51797867
Si       7.73629427       4.12782955      13.99139690  F       0.00000000       0.00000000       0.00000000      -0.00007971       0.98253763      -0.24052161      -5.08666801
Si       7.73629427       5.75486040      15.85691643  F       0.00000000       0.00000000       0.00000000       0.00308494       0.08581475      -0.65484273      -6.48407745
Si       9.67138030       9.09931628      17.65720167  T      -0.14366238      -0.03214468      -0.78253000      -0.01328842       0.01435999       0.00275319      -6.67942429
Si       9.67036819       0.80531353      15.85691643  F       0.00000000       0.00000000       0.00000000      -0.00767089       0.01639360      -0.39809942      -6.42764854
Si       7.73417770       4.14445919      17.68211386  T       0.05196021      -0.06028543       0.29586119       0.00563602      -0.00505026       0.02354295      -6.59085512
Si       7.73082418       5.79192107      19.49733811  T       0.12352573       0.24867392      -0.44742939       0.00909609      -0.01956309       0.00646019      -6.44071960
Si       9.68810786       9.10943187      21.39806245  T       0.09179250       0.40791999      -0.28760861       0.00581549      -0.00712158       0.00614176      -6.55410719
Si       9.67735337       0.84695616      19.51163109  T       0.15836167      -0.23126716       0.55305742       0.00272927      -0.00652377       0.00748265      -6.52511454
Si       7.77214564       4.17454314      21.35968963  T       1.21272276       0.04072380       0.69937823       0.01156829       0.01287337      -0.00426975      -6.54810047
Si       7.78362728       5.68943704      23.26396809  T       0.85182310      -1.42226615       0.13200116      -0.01940764      -0.01026165       0.00459282      -5.18096685
Si       9.68837150       9.25364723      25.08031711  T      -0.28659177       0.85705407      -0.75642859      -0.00070526      -0.00425220      -0.01425645      -4.63761997
N        3.34354688       4.31415576      24.63065835  T       0.27239901      -0.98738032       4.57636132      -0.00457060       0.05819124       0.04494374      -8.57797909
O        4.55306672       3.67753832      24.68648262  T       3.79919419      -2.05706977       3.89985899      -0.03822124       0.00386199      -0.06367898      -5.42833328
H        2.43690653       4.50795244      21.28901559  T      -3.19757013       0.52219954       0.12634535       0.02746281       0.03356047      -0.01965426      -3.85873961
H        3.12163674       4.48118433      25.62965044  T       0.51794516      -0.07605882       0.63166866       0.02652074       0.04765096      -0.06044582      -3.36049628
H        4.96182913       7.94792966      24.77057540  T       0.04524296       2.39324532       0.12706526       0.02121455       0.01492405       0.00362828      -3.98946810
