77
Lattice="11.60444164276123 0.0 6.999999919513338e-16 -2.799999967805335e-15 9.899094581604004 3.73103928565979 0.0 0.0 33.57935333251953" Properties=species:S:1:pos:R:3:move_mask:L:1:momenta:R:3:forces:R:3:energies:R:1 adsorbate_info="_JSON {\"site\": {\"coordinates\": [10.959750491840818, 6.873301983333334, 22.697154996666672], \"connectivity\": 3, \"topology\": [5, 35, 46], \"n_vector\": [-0.84759103832198, 0.11189168894705168, 0.5187192706087215], \"h_vector\": [-0.7024197253573772, 0.21810699141472112, -0.6775218592229225], \"site_formula\": {\"Hf\": 1, \"Sc\": 1, \"Si\": 1}}, \"smiles\": \"S1S\", \"mdf\": 0.8894784292949433, \"adsorbate_formula\": \"H3NO\"}" bond_change_count=1 energy=-548.0501098632812 stress="0.00019283428264316171 5.4719152103643864e-05 3.949967322114389e-06 5.4719152103643864e-05 0.0002918917452916503 5.6449422118021175e-05 3.949967322114389e-06 5.6449422118021175e-05 6.298487278399989e-05" free_energy=-548.0501098632812 pbc="T T F"
Hf       1.93407357       3.56009269      15.85691643  F       0.00000000       0.00000000       0.00000000       0.01200711       0.04195464       0.41984484     -10.29536629
Hf      -0.00000000       8.50963974      15.85691643  F       0.00000000       0.00000000       0.00000000      -0.03765611       0.31224102      -0.06288615      -9.62216568
Hf       1.91792162       3.58744974      19.58718467  T      -3.33160260      -0.89097780       0.54485775       0.02036680      -0.00282583       0.01117256     -10.39746857
Hf      -0.00585607       8.54261797      19.53044538  T       1.64580857       1.34001025      -0.23703489       0.02112545      -0.00285730       0.01206726     -10.42162895
Hf       2.04948391       3.67831006      23.00815382  T       0.01185722       1.31180082      -1.25316303      -0.00189245      -0.01465827       0.03085659      -9.18602562
Hf       0.02994370       8.50713227      23.26404400  T       0.83508898      -3.08549539      -3.04210057      -0.04654151      -0.06118274      -0.00283426     -11.31500053
Hf       5.80222082       3.56009269      15.85691643  F       0.00000000       0.00000000       0.00000000      -0.02935966       0.09015623       0.42653787     -10.29730701
Hf       3.86814713       8.50963974      15.85691643  F       0.00000000       0.00000000       0.00000000      -0.03520832       0.31378672      -0.00676468      -9.61793995
Hf       5.85722658       3.62286296      19.54160986  T      -1.06040146       3.44359118      -0.47035643      -0.01651330       0.03002997      -0.00662033     -10.38789749
Hf       3.83524249       8.55327388      19.49965283  T       0.42573749      -0.11683863       0.43362628       0.00489351       0.01578552      -0.01834401     -10.39322662
Hf       5.87203850       3.84957646      23.08638522  T       0.35191249       3.26987317      -3.60994533       0.04293518       0.00440150       0.01589279      -9.15577698
Hf       3.86481683       8.46601555      23.18774562  T      -2.09363207       2.85172993      -1.76350855      -0.01928913       0.00021717       0.01636256     -10.22094631
Hf       9.67036819       3.56009269      15.85691643  F       0.00000000       0.00000000       0.00000000       0.07223265       0.01701143       0.35703352     -10.31360912
Hf       7.73629427       8.50963974      15.85691643  F       0.00000000       0.00000000       0.00000000       0.00633669       0.31700492      -0.01969782      -9.61474133
Hf       9.67218480       3.54005457      19.54794178  T       0.55604773      -1.47262905       0.59903671       0.00744308      -0.00342092       0.00810455     -10.36300850
Hf       7.72709151       8.55668899      19.52352794  T      -1.38631782      -1.18189008      -0.67447415      -0.01724527       0.00262102       0.00130691     -10.45516300
Hf       9.62058018       3.82993350      23.20275294  T      -0.75309949       2.77843242      -3.58123005       0.05700970       0.05804468       0.04523887      -9.60782623
Hf       7.55643018       8.60121420      23.12000145  T      -1.83523797       1.77737770      -1.35087552      -0.03985882       0.05714557       0.00191437     -10.45111465
Sc      -0.00000000       1.40585887      13.99139690  F       0.00000000       0.00000000       0.00000000      -0.00036943       0.17182267       0.21425933      -7.20425129
Sc       1.93407357       6.35540581      13.99139690  F       0.00000000       0.00000000       0.00000000      -0.00139630      -0.62756836       0.67029172      -6.26885843
Sc      -0.03413714       1.35515830      17.74089103  T      -0.55301576      -0.67569854      -0.82601559       0.00046651      -0.00184503      -0.00206154      -7.29041767
Sc       1.92684922       6.36254017      17.65781882  T      -0.16472941       0.00556668      -0.99789644      -0.00708849      -0.01634102       0.00444176      -7.17606020
Sc      -0.12762376       1.33017759      21.32902240  T       0.11233266      -1.61781057       0.05767909      -0.01099750      -0.00653654       0.00066200      -6.94237947
Sc       1.87991386       6.37487513      21.36527669  T       0.75313126      -0.48716279      -1.20824457      -0.00471534       0.02398470       0.00094904      -7.31953526
Sc       3.86814713       1.40585887      13.99139690  F       0.00000000       0.00000000       0.00000000      -0.01506780       0.20873484       0.20651808      -7.20506573
Sc       5.80222082       6.35540581      13.99139690  F       0.00000000       0.00000000       0.00000000       0.00059018      -0.62673140       0.67464310      -6.27020025
Sc       3.83943380       1.42324400      17.66141665  T      -1.43660389      -0.20109278       0.84323294      -0.03235698      -0.01182756       0.02735894      -7.20952988
Sc       5.80436482       6.37104427      17.65757612  T       0.18806927      -0.50041421      -0.73494348       0.01235551       0.00050712      -0.01120770      -7.17737770
Sc       3.85090127       1.40510272      21.40547776  T       1.27139283       0.46212462       0.76834116      -0.01035115      -0.03306696       0.04287945      -6.88714743
Sc       5.87957563       6.42737986      21.33224021  T       0.20685008       0.13251731      -0.60643344      -0.01750951       0.00771452      -0.02003086      -7.27133512
Sc       7.73629427       1.40585887      13.99139690  F       0.00000000       0.00000000       0.00000000       0.00237135       0.19268566       0.20965506      -7.20987892
Sc       9.67036819       6.35540581      13.99139690  F       0.00000000       0.00000000       0.00000000       0.00155346      -0.62599427       0.66576886      -6.27197742
Sc       7.73992933       1.41608002      17.67385297  T       0.31628029       0.07494662      -0.28419485      -0.00287930      -0.02681224       0.02848425      -7.22774982
Sc       9.68793912       6.36532397      17.65058992  T       1.43107331      -0.61816663      -1.17870271       0.00431576      -0.00480036      -0.01160257      -7.20854187
Sc       7.67686934       1.46444660      21.32378245  T      -0.84540709       1.49320096      -0.70155706      -0.00573873       0.00958587      -0.01296193      -6.95884800
Sc       9.73448877       6.37992404      21.33952105  T      -0.08494432       0.29500545      -0.07739397       0.00350217       0.03824691       0.02328235      -7.83110571
Si       1.93407357       0.80531353      12.12587738  F       0.00000000       0.00000000       0.00000000      -0.00884836      -0.98224574      -0.05710316      -4.51650381
Si      -0.00000000       4.12782955      13.99139690  F       0.00000000       0.00000000       0.00000000       0.00487414       0.97890723      -0.23543930      -5.08745909
Si      -0.00000000       5.75486040      15.85691643  F       0.00000000       0.00000000       0.00000000       0.02374995      -0.01301088      -0.59952515      -6.48573208
Si       1.91994727       9.10043242      17.64779484  T      -0.01065716       0.30042630      -0.51959468       0.01150072      -0.01164212       0.00904835      -6.67878628
Si       1.93407357       0.80531353      15.85691643  F       0.00000000       0.00000000       0.00000000      -0.17566174       0.03241798      -0.34813088      -6.41282845
Si       0.00335781       4.11153531      17.70166085  T      -0.26429726      -0.18830831      -0.08444397      -0.01794231      -0.02229683       0.01263149      -6.59627914
Si      -0.00271899       5.75079289      19.51158398  T       0.41721524      -0.33150707      -0.18426132       0.01526541      -0.00840215       0.02098464      -6.44509315
Si       1.93467320       9.10369290      21.40042569  T      -0.24526050       0.24530203      -0.52298716       0.01658519       0.00604554       0.01113600      -6.59313059
Si       1.92762050       0.83578857      19.55942556  T      -0.02437648      -0.07973392       0.69022719      -0.00946602      -0.02190723       0.01187593      -6.53435898
Si      -0.04180166       4.11088444      21.42579577  T      -0.12101421      -1.09319403       1.22393814       0.04866770      -0.01510054      -0.03713268      -6.49605989
Si       0.06935135       5.57995635      23.36289058  T       2.39527430      -2.16646410      -0.02138946      -0.03446221       0.06010085      -0.00279486      -5.01689482
Si       1.96073643       9.20208983      25.12520144  T      -0.50238681      -0.24777112       1.49846953       0.01290289      -0.05409417       0.00488225      -4.48782730
Si       5.80222082       0.80531353      12.12587738  F       0.00000000       0.00000000       0.00000000       0.00079645      -0.99119914      -0.05125403      -4.51732063
Si       3.86814713       4.12782955      13.99139690  F       0.00000000       0.00000000       0.00000000      -0.00350662       0.97510648      -0.22819014      -5.09381437
Si       3.86814713       5.75486040      15.85691643  F       0.00000000       0.00000000       0.00000000      -0.01445009       0.03415927      -0.57267368      -6.49207401
Si       5.79943642       9.10142619      17.65043176  T       0.20504434       0.61107441      -0.82556721      -0.02469897      -0.00081955       0.01347461      -6.67538691
Si       5.80222082       0.80531353      15.85691643  F       0.00000000       0.00000000       0.00000000      -0.08825163       0.18903126      -0.59239471      -6.41859722
Si       3.86656145       4.14953359      17.71369151  T      -0.19205532      -0.22959170      -0.01391353      -0.00072557       0.00889804      -0.01206592      -6.58228064
Si       3.86681267       5.80131852      19.51012210  T       0.04738911      -0.29075416      -0.58362848       0.00233962       0.00386887      -0.00055186      -6.45228386
Si       5.71105040       9.12147619      21.33669302  T       0.17667105       0.33768575      -0.05978945       0.00290182       0.01756980       0.04685616      -6.56175852
Si       5.75769334       0.89435224      19.47533929  T       0.24352521      -0.68533035       0.20232138      -0.00531020      -0.02688415       0.00783061      -6.51215553
Si       3.93962838       4.19782903      21.32301243  T      -0.24768098      -0.29643322       1.34437627       0.00876555      -0.02935375      -0.01723465      -6.54239178
Si       3.88041377       5.69160994      23.22727615  T       0.19906842      -2.11098363       0.97044529       0.01506223       0.00942874      -0.01662373      -5.25273800
Si       5.76260045       9.29524077      25.04576027  T      -0.09500511       1.47628002      -0.14378488       0.02052137      -0.02112198       0.02195825      -4.66464758
Si       9.67036819       0.80531353      12.12587738  F       0.00000000       0.00000000       0.00000000       0.00345988      -1.01003993      -0.02181813      -4.51610279
Si       7.73629427       4.12782955      13.99139690  F       0.00000000       0.00000000       0.00000000      -0.00105206       0.97718930      -0.23488985      -5.08796740
Si       7.73629427       5.75486040      15.85691643  F       0.00000000       0.00000000       0.00000000       0.02530188       0.09540690      -0.63322294      -6.48616314
Si       9.67068510       9.09888029      17.65660380  T       0.27458358       0.06784021      -0.70096022      -0.00788361       0.00530741      -0.00650732      -6.68867254
Si       9.67036819       0.80531353      15.85691643  F       0.00000000       0.00000000       0.00000000       0.04962289      -0.00474773      -0.36315727      -6.45007896
Si       7.75582205       4.14852656      17.68639813  T      -0.19016675       0.59930025       0.15973195       0.00030218      -0.01411529       0.00933051      -6.60110855
Si       7.77807741       5.80493849      19.49310054  T       0.22294176      -0.14508283      -0.16164935       0.00717703      -0.00336418       0.01327016      -6.45471668
Si       9.64191086       9.08274070      21.37289426  T      -0.25863087      -0.12918872      -0.27743099       0.01304366      -0.01979855       0.02580184      -6.45710945
Si       9.60667791       0.66733255      19.58260738  T      -0.20920660      -1.15264313      -0.30449798       0.00881711       0.00089179       0.00074120      -6.61640978
Si       7.79525092       4.27437212      21.37591606  T       0.06275710       0.13958719       1.09043318      -0.00354727       0.00877180      -0.00728295      -6.55870247
Si       7.94578796       5.95172663      23.40076082  T       0.26020769      -0.40347307       1.80656518       0.00985861       0.00225090       0.02662624      -5.18940926
Si       9.49340797       8.78426538      25.17145154  T      -2.36625561       7.19690716       1.67023185       0.02116325       0.03210589       0.02761786      -4.84773207
N        9.89303105       7.12081099      23.26879559  T      -2.77886411       0.62754945      -2.06360733       0.02946091       0.06314874      -0.00763667      -8.10347843
O       10.24173230       7.29808703      24.51930798  T      -0.06639389      -4.82426648      -2.50299760       0.03316271      -0.02769130      -0.02224278      -4.95380020
H       10.76756455       4.77435166      24.42192257  T      -0.17488219      -1.65236337       0.96710391       0.03607599      -0.04095963      -0.07944936      -4.13956642
H        9.41339488       8.01988173      23.28790014  T       0.32423539      -0.74299642      -0.07609383       0.03980756      -0.03104270      -0.04111475      -2.72859287
H       14.33700369      10.10341948      26.22595184  T       2.34610346       0.67229276       0.29383870       0.01714998       0.00201610      -0.01614487      -4.00808287
