77
Lattice="11.60444164276123 0.0 6.999999919513338e-16 -2.799999967805335e-15 9.899094581604004 3.73103928565979 0.0 0.0 33.57935333251953" Properties=species:S:1:pos:R:3:move_mask:L:1:momenta:R:3:forces:R:3:energies:R:1 adsorbate_info="_JSON {\"site\": {\"coordinates\": [10.637404916380614, 2.48297578, 22.386235235000004], \"connectivity\": 2, \"topology\": [16, 22], \"n_vector\": [0.362234589291042, -0.48249560242097883, 0.7974861102022823], \"h_vector\": [0.5615684962003928, -0.6254932277956127, -0.5416632219904314], \"site_formula\": {\"Hf\": 1, \"Sc\": 1}}, \"smiles\": \"S1S\", \"mdf\": 1.022401751557794, \"adsorbate_formula\": \"H3NO\"}" bond_change_count=1 energy=-546.6944580078125 stress="0.00016099950880743563 1.1707477824529633e-05 1.622108470655803e-06 1.1707477824529633e-05 0.00018903946329373866 2.5561572329024784e-05 1.622108470655803e-06 2.5561572329024784e-05 5.056465306552127e-05" free_energy=-546.6944580078125 pbc="T T F"
Hf       1.93407357       3.56009269      15.85691643  F       0.00000000       0.00000000       0.00000000       0.00315104       0.05595499       0.41366553     -10.29620743
Hf      -0.00000000       8.50963974      15.85691643  F       0.00000000       0.00000000       0.00000000       0.00385658       0.31243810      -0.01329657      -9.61528111
Hf       1.88836564       3.57508542      19.57504731  T      -3.26348770      -0.99007823       0.49153348      -0.02299116       0.00911090       0.00184041     -10.37479877
Hf      -0.00349867       8.56589140      19.53154206  T       1.67871308       1.45555709      -0.37773792      -0.00759108      -0.00518030      -0.00892659     -10.39384842
Hf       1.73035159       3.72961692      23.19193286  T       1.04403945       2.16375252      -0.90809561       0.00417387      -0.00116789      -0.01181419     -10.18645477
Hf       0.00761198       8.57066503      23.20820619  T       0.71828618      -3.10750883      -2.00102070       0.01426380      -0.01590544      -0.00728018     -10.17307281
Hf       5.80222082       3.56009269      15.85691643  F       0.00000000       0.00000000       0.00000000      -0.04014392       0.05442455       0.39703706     -10.29205132
Hf       3.86814713       8.50963974      15.85691643  F       0.00000000       0.00000000       0.00000000       0.00001395       0.30606061       0.01128513      -9.61505985
Hf       5.81849334       3.57119352      19.60058231  T      -1.14263489       3.33870447      -0.55116455       0.01177641       0.00187653       0.01232691     -10.35976315
Hf       3.87448335       8.55196431      19.51766964  T       0.42767096      -0.11619792       0.44880576       0.01513621      -0.00658959      -0.00442676     -10.36957645
Hf       5.77447989       3.74150547      23.08275236  T       0.13404051       3.71263123      -3.71117024       0.00392380       0.03370586      -0.02148557      -9.07563210
Hf       3.90210474       8.45429532      23.19878524  T      -2.07057951       2.82931565      -1.72173065      -0.00996260       0.01053718      -0.00688947     -10.18482971
Hf       9.67036819       3.56009269      15.85691643  F       0.00000000       0.00000000       0.00000000      -0.02578976       0.05725008       0.42082274     -10.30679321
Hf       7.73629427       8.50963974      15.85691643  F       0.00000000       0.00000000       0.00000000       0.00402955       0.30732143      -0.01611033      -9.61845779
Hf       9.65287327       3.59167596      19.52440046  T       0.57348963      -1.51804562       0.58951617      -0.00299480      -0.00049849      -0.01705599     -10.31878090
Hf       7.74037563       8.55352031      19.52359901  T      -1.42998682      -1.07972770      -0.78688752      -0.00287321      -0.00530413      -0.00473768     -10.38080311
Hf       9.76733393       3.92645724      23.48933007  T      -5.56713485       2.05984883     -13.08758199      -0.03030086      -0.01607502      -0.01707304     -11.24468994
Hf       7.73234934       8.50644688      23.22202480  T      -2.32213666       1.59425554      -2.33844117      -0.01008664      -0.00942391       0.00253038     -10.18094635
Sc      -0.00000000       1.40585887      13.99139690  F       0.00000000       0.00000000       0.00000000       0.00200341       0.18338421       0.22716194      -7.20424891
Sc       1.93407357       6.35540581      13.99139690  F       0.00000000       0.00000000       0.00000000       0.00097614      -0.62533224       0.67359662      -6.26876163
Sc       0.00391515       1.41214114      17.67601635  T      -0.45699925      -0.42472133      -1.02122968      -0.00167878       0.01968315       0.00918613      -7.21671629
Sc       1.93237344       6.35940249      17.66023138  T      -0.15480096       0.01636270      -1.01375100      -0.01687517       0.01553020      -0.00377055      -7.18294954
Sc       0.09869794       1.38591696      21.41080038  T      -0.27782404      -1.90007817       1.34331112       0.00115097      -0.03365946      -0.08133233      -7.71802044
Sc       1.94027333       6.38156929      21.30062984  T       0.81435484      -0.68493702      -1.12021904      -0.00897073      -0.00294229      -0.01164998      -7.23804855
Sc       3.86814713       1.40585887      13.99139690  F       0.00000000       0.00000000       0.00000000       0.00125687       0.17589343       0.22598672      -7.20512295
Sc       5.80222082       6.35540581      13.99139690  F       0.00000000       0.00000000       0.00000000      -0.00129452      -0.62658691       0.67064786      -6.26769400
Sc       3.88623127       1.40359120      17.66677682  T      -1.42360479      -0.20755471       0.84343615       0.01848177       0.00404781      -0.00825103      -7.19853592
Sc       5.80367623       6.35403670      17.66716219  T       0.18176423      -0.49088933      -0.74723193      -0.01432621       0.01731248      -0.00823886      -7.18254614
Sc       3.91751013       1.40021219      21.40797475  T       1.38552810       0.47211508       0.78895174      -0.00214489       0.00082596      -0.00594892      -6.85234404
Sc       5.77392732       6.39151714      21.30716574  T      -0.02442082       0.06511725      -0.71337175       0.00183434      -0.00888160       0.03811476      -7.19801235
Sc       7.73629427       1.40585887      13.99139690  F       0.00000000       0.00000000       0.00000000      -0.00209225       0.18008620       0.22524358      -7.20600128
Sc       9.67036819       6.35540581      13.99139690  F       0.00000000       0.00000000       0.00000000      -0.00079685      -0.62545013       0.67326921      -6.27149105
Sc       7.74006160       1.40857042      17.67534829  T       0.22985817       0.26147493      -0.42229148      -0.01443909       0.00720838      -0.00227137      -7.20043659
Sc       9.66199486       6.36695513      17.65353052  T       1.43029827      -0.60087923      -1.18786136       0.00054847       0.01931216       0.00655203      -7.17959642
Sc       7.68603077       1.42136758      21.40588658  T       0.08104749       0.72996855      -0.45862981       0.00397402       0.01196816       0.00445668      -6.83599520
Sc       9.64361823       6.36003068      21.34374789  T      -0.21097005       0.62852080      -0.82468945       0.03725614      -0.00558782       0.00424501      -7.25060511
Si       1.93407357       0.80531353      12.12587738  F       0.00000000       0.00000000       0.00000000      -0.00071616      -1.01680028      -0.02411327      -4.51759100
Si      -0.00000000       4.12782955      13.99139690  F       0.00000000       0.00000000       0.00000000       0.00079768       0.97868472      -0.23580992      -5.09141636
Si      -0.00000000       5.75486040      15.85691643  F       0.00000000       0.00000000       0.00000000      -0.00282502       0.05615146      -0.60319507      -6.48670626
Si       1.93220123       9.09682189      17.65659122  T      -0.00988040       0.29959236      -0.51690547       0.00668268       0.00823988      -0.00966400      -6.68184185
Si       1.93407357       0.80531353      15.85691643  F       0.00000000       0.00000000       0.00000000       0.04256409      -0.02240246      -0.40129578      -6.42413473
Si      -0.00339987       4.14496975      17.69959053  T      -0.26906362      -0.15924553      -0.12054434       0.00080345       0.01555059      -0.03692647      -6.60235167
Si      -0.01814366       5.79649297      19.50583388  T       0.43279617      -0.28114478      -0.25991247       0.00284621       0.00362010       0.01588799      -6.45245266
Si       1.95348769       9.08880214      21.38828091  T      -0.32610236       0.23730614      -0.55766956       0.00213260       0.01485765       0.03275378      -6.55431652
Si       1.99195732       0.82528171      19.48784619  T       0.13329417      -0.19693546       0.72857660      -0.00977594       0.00739414      -0.02356683      -6.49086905
Si      -0.11149187       4.18167018      21.37501780  T       0.80114760      -0.18601553       0.25647790       0.03119598       0.03156144      -0.02317484      -6.36382914
Si       0.04035747       5.82864134      23.17601376  T       1.04000516      -1.18213531       0.12784240      -0.01019053       0.04735795      -0.04057509      -5.18062973
Si       1.99479773       9.20733349      25.03206022  T      -0.04285709       0.96540240      -0.35874184       0.00516223       0.02829358       0.01225585      -4.57711172
Si       5.80222082       0.80531353      12.12587738  F       0.00000000       0.00000000       0.00000000       0.00167284      -1.00942802      -0.03297058      -4.51695728
Si       3.86814713       4.12782955      13.99139690  F       0.00000000       0.00000000       0.00000000      -0.00125668       0.97778785      -0.23181605      -5.09383392
Si       3.86814713       5.75486040      15.85691643  F       0.00000000       0.00000000       0.00000000       0.00847457       0.00202253      -0.53230429      -6.48806620
Si       5.80598983       9.09644909      17.65317831  T       0.20455789       0.61151570      -0.82379772      -0.00730747      -0.00439341       0.00145270      -6.68249369
Si       5.80222082       0.80531353      15.85691643  F       0.00000000       0.00000000       0.00000000       0.04527745      -0.01818296      -0.44435593      -6.42126417
Si       3.86339293       4.12537557      17.71392727  T      -0.19298879      -0.21747731      -0.02247211       0.01869679       0.00491021       0.01255196      -6.58179855
Si       3.85619674       5.75868064      19.50290962  T       0.04498466      -0.29411564      -0.58138540       0.00832775       0.01132942      -0.02254943      -6.46971178
Si       5.81427520       9.09954885      21.39086974  T       0.17864410       0.41231208      -0.16008901      -0.00313254      -0.00106556       0.00684410      -6.55229282
Si       5.81475491       0.83424440      19.51412355  T       0.27084496      -0.62570717       0.26768929      -0.00226937       0.04209247      -0.01522567      -6.52538729
Si       3.81455347       4.13736655      21.38119164  T      -0.05841338      -0.13945646       1.15104368      -0.05496803       0.02796853       0.01863553      -6.58611584
Si       3.83983934       5.63564519      23.25526438  T       0.32403905      -2.09827851       0.89865207      -0.01622137      -0.02348111      -0.01497377      -5.21558666
Si       5.80664547       9.23213117      25.06907531  T      -0.20920543       1.50065195      -0.16049914       0.00254539       0.00929072      -0.00405039      -4.62722969
Si       9.67036819       0.80531353      12.12587738  F       0.00000000       0.00000000       0.00000000      -0.00006045      -1.00058472      -0.03842905      -4.51768637
Si       7.73629427       4.12782955      13.99139690  F       0.00000000       0.00000000       0.00000000      -0.00217893       0.97753716      -0.23680758      -5.09101009
Si       7.73629427       5.75486040      15.85691643  F       0.00000000       0.00000000       0.00000000      -0.03020280       0.04920558      -0.60639274      -6.48704624
Si       9.67143945       9.10002343      17.65397268  T       0.27529328       0.06329458      -0.69688354      -0.00150957      -0.00063082       0.00279841      -6.67772341
Si       9.67036819       0.80531353      15.85691643  F       0.00000000       0.00000000       0.00000000      -0.00651129      -0.01182824      -0.37305349      -6.42954683
Si       7.72297765       4.13832213      17.69797303  T      -0.18288374       0.62325227       0.15591548      -0.01503514      -0.00037868      -0.00693045      -6.59035349
Si       7.73586413       5.76493923      19.51859993  T       0.23005870      -0.06848292      -0.27297534       0.01334513       0.02073907       0.02110117      -6.46136570
Si       9.66462651       9.10059090      21.40245747  T      -0.04074863      -0.17813171      -0.27339779      -0.00514535       0.01098283       0.01187025      -6.56044245
Si       9.66598662       0.86828551      19.52928209  T      -0.39776067      -0.51226970      -0.26979961      -0.00248202       0.02042853      -0.00836708      -6.44900703
Si       7.81555743       4.14676216      21.44003309  T      -1.11662551       0.46319299      -0.07705723      -0.01089767       0.03513096      -0.01785856      -6.45861864
Si       7.61914157       5.72312300      23.26726816  T      -1.72584734      -1.33947716       1.02066210       0.01747921      -0.01047098      -0.01093684      -5.26306152
Si       9.67152945       9.27153290      25.07746605  T       0.28742890       1.80020710      -0.97869953      -0.01736284       0.01445445       0.01420724      -4.58362961
N       11.59651187       2.75731290      24.14121681  T       4.97049882      -3.68335141       4.78353686       0.04256546       0.01474652       0.05926681      -7.74244404
O       11.01421964       2.46204563      22.98640003  T      -0.84477540       0.67503207       0.59953757       0.00009418      -0.03023541       0.00306463      -5.65200996
H        8.59114157       4.57250582      37.05895305  T      -0.69047647       0.56029457       6.87971916       0.00000000       0.00000000       0.00000000      -1.21355796
H       11.49880523       1.98547116      24.82172658  T       0.42899591      -1.04548224       0.29938232       0.02781322      -0.00562249      -0.01552136      -3.42280746
H       11.65394684       4.48839417      24.01099099  T       0.12340789       0.02197061       0.66311819       0.00911681      -0.05018079       0.03076491      -4.24640369
