50
Lattice="10.06605052947998 -0.0 -6.000000233523199e-16 2.9999999050033628e-15 10.486835479736328 4.460142135620117 -0.0 3.79999986555371e-15 31.220993041992188" Properties=species:S:1:pos:R:3:move_mask:L:1:momenta:R:3:forces:R:3:energies:R:1 adsorbate_info="_JSON {\"site\": {\"coordinates\": [1.67767513, 9.55919647, 21.65746117], \"connectivity\": 1, \"topology\": [27], \"n_vector\": [-0.1358514365547703, -0.5217384762862295, 0.8422193001520025], \"h_vector\": [1.0, 0.0, 0.0], \"site_formula\": {\"Pd\": 1}}, \"smiles\": \"Cl\", \"mdf\": 1.701957677669589, \"adsorbate_formula\": \"HO\"}" bond_change_count=0 energy=-348.54791259765625 stress="0.000393699505366385 -5.029030489822617e-07 2.000395397772081e-06 -5.029030489822617e-07 0.00041093441541306674 0.00013546933769248426 2.000395397772081e-06 0.00013546933769248426 0.0001501455408288166" free_energy=-348.54791259765625 pbc="T T F"
Zr       1.68398974       3.75322230      19.60070688  T      -0.27020084       2.17680544       2.85472545      -0.00248878       0.02720305       0.02740129      -8.99075890
Zr       0.01229852       1.67373818      17.04266183  T      -1.16851692       0.52518411       0.88556924       0.02121660       0.01108156      -0.01692426      -9.30411911
Zr       0.00677508       9.07575034      19.19315378  T      -0.75450560       1.17064922       1.47715919      -0.01716150       0.01971520       0.00418773      -9.16164684
Zr       1.68992254       6.63856255      21.85470874  T       1.36670112       0.19292069       0.30076513      -0.00689916      -0.00417898      -0.00716171     -10.39689922
Zr       1.67767513       3.75169039      14.96724892  F       0.00000000       0.00000000       0.00000000       0.00080376       0.24348916      -0.19210729      -8.39919758
Zr      -0.00000000       1.49172723      12.73717785  F       0.00000000       0.00000000       0.00000000      -0.08088058       0.11436039       0.50941610      -7.64456034
Zr      -0.00000000       8.99510765      14.96724892  F       0.00000000       0.00000000       0.00000000      -0.00863072      -0.71567088       0.45829478      -7.37799788
Zr       1.67729812       6.89708135      16.97770504  T      -1.00296965       0.25672068      -1.91625322       0.02265088      -0.01215889      -0.00338575      -9.17778301
Zr       4.95995194       3.91144025      19.35930830  T       0.06608166       1.50267473       0.24412845       0.02066473       0.00282831       0.00266610      -9.14389420
Zr       3.34391834       1.67310271      17.04396996  T      -0.83134915       0.11479749       2.28181366      -0.02143222      -0.00378808      -0.01812071      -9.30221844
Zr       3.35014056       9.07481985      19.20513234  T       1.87832135      -0.15438844       0.13182644       0.00718543       0.03074688      -0.01150837      -9.15920925
Zr       5.04100608       6.88667012      21.09946216  T       1.19417795      -2.74227025      -3.39329906      -0.00975165       0.03297909       0.02490479      -8.47031689
Zr       5.03302526       3.75169039      14.96724892  F       0.00000000       0.00000000       0.00000000      -0.09540338       0.08579473       0.11898038      -8.40423965
Zr       3.35535026       1.49172723      12.73717785  F       0.00000000       0.00000000       0.00000000       0.09140432       0.11866513       0.51620346      -7.64393663
Zr       3.35535026       8.99510765      14.96724892  F       0.00000000       0.00000000       0.00000000       0.01549557      -0.72475004       0.45574546      -7.37540293
Zr       5.02362620       6.84091351      17.03599382  T      -0.04276135      -0.79192208      -2.28507989      -0.02114855      -0.00302672      -0.04410708      -9.20431995
Zr       8.47484834       3.90482264      19.36423620  T      -0.19867033       0.09005916       2.36406598      -0.01924510       0.03480634       0.01279800      -9.14285755
Zr       6.71323472       1.39332961      17.35797707  T       0.02585124      -1.79972413      -1.24614489       0.00061134       0.01139502      -0.00485353      -9.18323517
Zr       6.71130054       9.13127290      19.23551558  T      -2.42265221       0.56500528      -0.92469315       0.00772858       0.03374296       0.03418864      -9.13500977
Zr       8.39682741       6.88876629      21.11399236  T      -0.07341001       0.32390188      -1.54066902       0.02931506       0.00120719      -0.03241026      -8.46745491
Zr       8.38837528       3.75169039      14.96724892  F       0.00000000       0.00000000       0.00000000       0.10210653       0.08301337       0.11406502      -8.40371418
Zr       6.71070051       1.49172723      12.73717785  F       0.00000000       0.00000000       0.00000000      -0.00780543       0.05422479       0.49304968      -7.61030912
Zr       6.71070051       8.99510765      14.96724892  F       0.00000000       0.00000000       0.00000000      -0.00395618      -0.78765988       0.55199325      -7.36186838
Zr       8.40146984       6.84164386      17.02878613  T      -2.16818580      -0.10454453      -2.28097681       0.00593835      -0.00475965      -0.02272752      -9.20224857
Pd       1.67640925       1.05539650      19.08316794  T       0.49384459       1.30491276      -1.14317305       0.00577182      -0.03129372       0.05291395      -4.66582251
Pd      -0.28317882       4.65270831      21.66626926  T       1.48058063       0.94912680      -0.78226110       0.00615731       0.00709717      -0.04109840      -4.30105495
Pd       0.22716107       6.21317677      19.33563449  T      -1.87784107       0.22316727       0.08600070      -0.03387216      -0.03205851       0.05477371      -6.08008003
Pd       1.66911014       9.44806961      21.45402765  T      -0.54681452       4.25879605      -5.68918536       0.00475525       0.00376156      -0.00868361      -5.20703793
Pd       1.67767513       0.92763877      14.96724892  F       0.00000000       0.00000000       0.00000000       0.00339269      -0.07415880      -0.95993412      -6.12065649
Pd       0.09236996       4.44889606      17.19038530  T      -0.91163080       0.24982531      -0.19335759       0.00018181      -0.02098624      -0.02199658      -6.10321808
Pd      -0.00000000       6.17105627      14.96724892  F       0.00000000       0.00000000       0.00000000      -0.06086325       0.40518790      -0.33269441      -4.99981833
Pd       1.68013465       9.86901737      16.94509376  T       1.90740874       3.04801101      -0.83938116      -0.00579173      -0.01115149      -0.01072152      -5.97239780
Pd       4.58433217       1.19613926      19.26301441  T      -0.32007335       0.58543815      -2.12999390       0.02495353      -0.01745081       0.01421985      -4.43193340
Pd       3.66299891       4.64833716      21.66006262  T      -0.89283364       1.48009351      -0.79105041      -0.01899809      -0.00664772      -0.01554428      -4.30449486
Pd       3.13673216       6.21149174      19.34107493  T       0.13194830      -1.18336964       0.73338653      -0.00408276      -0.03441433      -0.01161761      -6.08132124
Pd       4.87512464       9.63671376      21.57500474  T       0.37610480      -0.78366964       0.01081539      -0.00406374      -0.01005387      -0.00845808      -5.11738253
Pd       5.03302526       0.92763877      14.96724892  F       0.00000000       0.00000000       0.00000000       0.16508445       0.17660818      -0.62534225      -6.14619064
Pd       3.26768388       4.44741230      17.18840876  T      -0.54588443      -1.59158636      -1.26480465      -0.00805695      -0.00340086      -0.00790209      -6.10364819
Pd       3.35535026       6.17105627      14.96724892  F       0.00000000       0.00000000       0.00000000       0.07468776       0.41224846      -0.31373721      -4.99831057
Pd       5.03311349       9.84867217      16.94474871  T       0.57651108       0.89597494      -3.33175044       0.00557646      -0.00760604       0.00343222      -5.97928286
Pd       8.83889600       1.18935856      19.26175009  T      -0.06187949       2.12694567      -4.57039864      -0.03006279      -0.01576352       0.01775107      -4.43172550
Pd       6.72007541       4.74326120      21.56623140  T       0.56618443       0.95992545      -1.33439101      -0.00076109      -0.01878132      -0.04468356      -4.47651196
Pd       6.72071557       6.13938821      19.12463554  T      -1.06307134      -0.80793990       0.80310284       0.02965042       0.00069395       0.00477361      -6.13420582
Pd       8.55671923       9.63536342      21.57237097  T       2.38236253       0.25621319       0.01219717      -0.00576607      -0.00679121      -0.01110409      -5.12624264
Pd       8.38837528       0.92763877      14.96724892  F       0.00000000       0.00000000       0.00000000      -0.16555883       0.17631219      -0.62696052      -6.14576912
Pd       6.71267375       4.26563044      17.08850406  T       1.18223715       0.18761878      -0.83601039       0.00454999       0.01921871       0.01463218      -6.08773470
Pd       6.71070051       6.17105627      14.96724892  F       0.00000000       0.00000000       0.00000000      -0.00598887       0.48580846      -0.06508100      -5.00137281
Pd       8.38654688       9.85073204      16.94299180  T       1.55035909      -0.59114473      -2.54310721      -0.00261149      -0.00986564       0.00584076      -5.97838020
O        1.72836190       6.69309895      23.78411784  T       0.13916831      -6.09774653       4.60300814       0.00329077       0.02034297      -0.04573673      -7.46963787
H        1.79098741       6.93797716      24.71593878  T      -0.07079654      -0.29626735       0.03264032      -0.01189220      -0.05611523       0.01237059      -3.42034507
