82
Lattice="14.653685569763184 -3.0000001167615996e-16 -2.204113721847534 -8.411406517028809 11.436505317687988 1.0077073574066162 -0.0 3.5000000656357872e-15 28.464778900146484" Properties=species:S:1:pos:R:3:move_mask:L:1:momenta:R:3:forces:R:3:energies:R:1 adsorbate_info="_JSON {\"site\": {\"coordinates\": [-2.2125327965877286, 3.0815435233333326, 20.494018793949177], \"connectivity\": 3, \"topology\": [34, 36, 46], \"n_vector\": [-0.03494851288359658, 0.566238527826642, 0.823500170644756], \"h_vector\": [-0.18238669579361338, 0.9788678479071886, 0.09248150913040412], \"site_formula\": {\"Ru\": 3}}, \"smiles\": \"S1S\", \"mdf\": 1.9578613568915597, \"adsorbate_formula\": \"HN\"}" bond_change_count=0 energy=-774.3151245117188 stress="0.00054541154531762 2.085714868371724e-06 -9.016203694045544e-05 2.085714868371724e-06 0.0005907171289436519 -3.4354696254013106e-05 -9.016203694045544e-05 -3.4354696254013106e-05 0.00010215427755611017" free_energy=-774.3151245117188 pbc="T T F"
Ta      10.72976685       0.09530421      14.02861214  F       0.00000000       0.00000000       0.00000000      -0.05804443      -0.69637346      -1.66507339     -12.45534611
Ta       1.09641480       1.23895478      14.02861214  F       0.00000000       0.00000000       0.00000000      -1.23306370      -0.34565821       0.32922626     -11.44188690
Ta       1.29424558       4.83129727      16.51051174  T       2.50588404       1.17388972      -1.84674507       0.05417979       0.00945503      -0.02093491     -12.79381752
Ta       6.30045183       2.30564455      18.82220693  T      -1.83367691       2.16054138      -0.22612384       0.02733958       0.01328281      -0.01350161     -11.51582909
Ta      11.16879454       3.59396924      16.96140635  T       1.86672239       1.34461260       2.39447149      -0.02724385       0.00367227      -0.02026004     -12.63217926
Ta       7.70754835       2.21312447      15.03201004  T       0.03080155      -4.93480791      -2.26227811       0.01256697       0.00414073       0.01208663     -12.92387867
Ta      -2.22529776       3.26740907      14.95836829  T      -1.28163987      -1.47492053       0.27593800       0.01434362       0.01947793       0.01553726     -11.60927296
Ta       2.67122140       1.10450653      17.63004126  T      -1.43214169       0.08366565       2.23215795       0.02716968       0.01221010      -0.01926112     -12.87616444
Ta       3.10928845       4.47929811      13.17848206  F       0.00000000       0.00000000       0.00000000       0.29951572       0.50331724       1.44712389     -11.01855278
Ta       7.97511402       5.78513176      18.21331843  T      -0.95193607      -0.22386289       2.95527313       0.00455719      -0.01483816      -0.02258080     -11.84381866
Ta       6.52406359       5.81355715      14.53246593  F       0.00000000       0.00000000       0.00000000      -0.02029526      -0.62099797      -1.84974504     -12.47539043
Ta      -3.10928845       6.95720768      14.53246593  F       0.00000000       0.00000000       0.00000000      -1.20081782      -0.26362631       0.21927489     -11.44664383
Ta      -2.83909459      10.53937132      16.99522923  T       1.67269648      -2.08844812       3.61302112       0.03993770      -0.01009762      -0.02054894     -12.84317398
Ta       1.86784842       8.12782335      19.37279219  T      -3.88065398       0.81159602       1.87857669      -0.00748444       0.00311327       0.00362512     -11.59507751
Ta       7.03046604       9.29943472      17.74421004  T       0.58452022       0.82108179       2.44525331      -0.01944458      -0.00823240      -0.01996911     -12.17136002
Ta       3.45455453       7.91308733      15.55442848  T      -0.95449002      -0.98598680       0.26084523      -0.00728241       0.00282663       0.00123465     -12.90854549
Ta      -6.43948030       8.97744459      15.46567240  T      -0.42290067      -1.46553835      -0.44529469      -0.00561810       0.01738304      -0.00396276     -11.64134121
Ta      -1.67295538       6.89335776      18.15267633  T       1.09880104       1.15826604       2.21960506       0.02369565       0.02222395      -0.00230289     -12.90471840
Ta      -1.09641480      10.19755077      13.68233585  F       0.00000000       0.00000000       0.00000000       0.28403923       0.58104879       1.49602604     -11.04013252
Ta       3.80707024      11.58614374      18.73094575  T       0.00769838       1.79336346       2.23630354      -0.02070910       0.02693260       0.00805384     -11.71089363
Ru       9.97864774       1.11337852      16.36463956  T       1.44235948       0.08046709      -0.38550062       0.00100835       0.00757021       0.00530830      -9.47776699
Ru       0.33209110       2.06970172      16.47298705  T      -0.83724148      -0.67081875       1.73068098      -0.01691374       0.01379885       0.01933604      -9.35537243
Ru       0.99934141       5.38819223      18.93603785  T       1.48212500       0.83821003       1.63904967      -0.03013276       0.02323818       0.00350714      -8.47381115
Ru       5.41565323       3.33552551      14.28071499  F       0.00000000       0.00000000       0.00000000      -0.77220923       0.87909788      -1.06850314      -8.14169693
Ru      10.43598652       4.47917604      12.07660198  F       0.00000000       0.00000000       0.00000000       0.73917484       0.60789526       0.76796556      -7.31729126
Ru      10.23236179       2.76397467      14.28036213  F       0.00000000       0.00000000       0.00000000       0.94557595       0.23524068       0.24506575      -9.33451176
Ru       0.59900963       3.90762520      14.28036213  F       0.00000000       0.00000000       0.00000000       0.24482991      -1.31039047       0.17013708      -8.24017811
Ru       5.12202049       1.70778128      16.41367927  T       0.08720646       1.27853835       0.28067373       0.01175388       0.03254240       0.01467917      -9.44146347
Ru       5.66826417       4.78071504      19.03064220  T       1.19735004      -2.10792625      -0.99220622       0.01610541       0.03260875      -0.00555710      -7.66185570
Ru       0.08721326       0.38100017      18.88091759  T      -0.49773345       0.58717333       1.46760427       0.01390444       0.02714854      -0.03498740      -8.97348785
Ru      12.55075426       1.61082144      15.26145121  T      -0.66100461      -0.34508760       0.05151882       0.01082348       0.00108106       0.06266624      -9.40776825
Ru       2.96765817       2.60756073      15.18979316  T       0.10758218      -1.06878801      -1.03674367      -0.00109646       0.04985392       0.02143677      -9.23296070
Ru       7.84470737       0.60769202      17.77677586  T      -0.13169141      -0.78557806       0.39731037       0.04474431       0.02111709       0.01204743      -8.57494354
Ru       7.92622137       3.90744233      13.17848206  F       0.00000000       0.00000000       0.00000000      -0.16940469       0.89014530       0.43794185      -7.71349430
Ru      -1.61984988       5.02414081      19.98128797  T      -3.00034686      -3.34274690       1.00504051       0.05304062       0.07113570      -0.03658485      -7.98401928
Ru       8.42340183       1.23907673      12.92637920  F       0.00000000       0.00000000       0.00000000       0.18169996      -1.66308475       0.35980898      -7.53946543
Ru      -1.20139997       2.44874610      19.88922612  T      -2.82795525       0.08866493       1.03804112       0.04539829      -0.04137164      -0.07097962      -8.59072685
Ru       3.15202945      -0.02753373      14.90583609  T      -1.06857610       0.24150145      -1.87252642       0.02187888      -0.03621070      -0.02034452      -8.84574986
Ru       3.42710416       3.96528793      17.96316121  T       0.37151885       1.69359365       0.39645908       0.01865142       0.05035204      -0.03393847      -8.91549683
Ru       8.87186471       4.74681372      15.74619341  T       0.93779184       1.45872127       0.05534581      -0.01389521       0.00914616       0.00592864      -9.38828373
Ru       3.99808452       5.10576129      15.73099876  T       1.39306579      -0.64978602       1.17569958      -0.01736239       0.01741253       0.02757277      -9.34250736
Ru      13.24004555       0.66697699      12.92673206  F       0.00000000       0.00000000       0.00000000       0.10503948       0.17512976      -0.60902297      -8.50559902
Ru      -1.04074921       3.98231292      17.56872174  T       0.74518992       0.75726691       2.20558098       0.00521200       0.00940576       0.01845469      -9.44209766
Ru       4.00836232       1.94892412      19.47396235  T      -0.24219571       1.11343742      -3.26444310      -0.06836182      -0.03958721      -0.02382779      -8.01963043
Ru       8.63279573       3.20471934      17.96388788  T       2.58992528      -0.90930439      -0.38148152       0.00548229       0.01914182      -0.00318725      -8.66777992
Ru       5.91283369       0.66715997      14.02861214  F       0.00000000       0.00000000       0.00000000      -0.28527829       0.22351846      -0.43568403      -8.52285576
Ru      10.96354201       1.94158256      18.75625710  T       1.55070142       2.63946775      -3.05691745       0.00180876      -0.00071554      -0.03703851      -8.25403023
Ru      -3.32564542       5.20169041      16.89983865  T       2.16133863       0.68222106       0.13453953      -0.00184537      -0.02706690      -0.00676161      -9.44761562
Ru       1.29511450       2.76938613      18.92807045  T       0.05423740       0.02754286      -0.37712876       0.02374926       0.01053664      -0.06069205      -8.10058689
Ru       6.37232563       4.10676964      16.61576628  T       1.30599423       0.90649420      -0.99345183      -0.01088194       0.01572820       0.00006830      -9.38120842
Ru       5.67564786       6.78489721      16.77992536  T      -2.32887424       1.74952554      -1.21149485      -0.00061320       0.02598191       0.03091118      -9.47242451
Ru      -3.89788698       7.81870994      16.96605136  T       0.73369170      -2.00431691       0.27418947       0.00688837       0.01740925       0.00909226      -9.40704823
Ru      -3.14168335      11.19941104      19.40091204  T       0.04359040       0.01509705      -0.39159217      -0.02303715       0.03614424       0.01426148      -8.45262051
Ru       1.20994973       9.05377865      14.78456879  F       0.00000000       0.00000000       0.00000000      -0.65806073       0.94446754      -0.98774946      -8.14963150
Ru       6.23028326      10.19742870      12.58045483  F       0.00000000       0.00000000       0.00000000       0.72868013       0.65323341       0.81161094      -7.34257221
Ru       6.02665806       8.48222733      14.78421593  F       0.00000000       0.00000000       0.00000000       0.85769796       0.23608544       0.31730670      -9.31087399
Ru      -3.60669374       9.62587833      14.78421593  F       0.00000000       0.00000000       0.00000000       0.24291193      -1.26016009       0.19779414      -8.22301102
Ru       0.89065357       7.41577765      16.95801098  T      -0.20294352       1.79861768      -0.00109512       0.02398328       0.00438088       0.00542709      -9.49525642
Ru       1.64189227      10.65254187      19.59417802  T       3.11999790       0.68855048      -1.04711872      -0.02754074       0.01334679       0.00089018      -7.77218533
Ru      -4.08573481       6.17905652      19.39105926  T       1.34493311       0.17433440       2.51147818      -0.01742658       0.00020368      -0.04763524      -8.82279205
Ru       8.32256140       7.37044868      15.77418464  T      -0.65307853       0.44144311       0.53963650      -0.02541685      -0.00014183       0.01931012      -9.40925026
Ru      -1.21765943       8.32791710      15.66500051  T      -1.20492953      -1.67500581      -3.18325684      -0.00668420       0.02678095      -0.00555706      -9.23515511
Ru       3.56671806       6.50444575      18.36765569  T      -0.20884521       0.09411230       3.04285967       0.02364200       0.03291216      -0.00939298      -8.60683060
Ru       3.72051811       9.62569523      13.68233585  F       0.00000000       0.00000000       0.00000000      -0.23182656       0.84884036       0.41315645      -7.65913296
Ru      -5.80258905      10.87027565      20.39717316  T      -3.14344200       0.32228728      -1.58365104       0.07133108       0.05236827       0.03234231      -7.93457842
Ru       4.21769905       6.95732975      13.43023300  F       0.00000000       0.00000000       0.00000000       0.19687438      -1.62026191       0.55020899      -7.53377104
Ru      -5.50480303       8.12081756      20.52622910  T      -2.30470392       0.33786070      -0.31640325       0.01798129      -0.01157168       0.00818064      -7.99923801
Ru      -1.04557893       5.69043933      15.40921398  T      -1.87875926      -0.70931956      -2.10960580       0.00462373      -0.01311838      -0.00097225      -8.84700298
Ru      -0.62628620       9.47613706      18.36370037  T      -0.30473316       1.18079565      -0.56901407       0.01222462       0.00856408       0.00815299      -9.05937672
Ru       4.68584458      10.39415608      16.23243226  T       0.79979672      -0.11417528      -0.36608103      -0.00756760       0.02378177       0.02010149      -9.35147762
Ru      -0.14308179      10.87225848      16.24106387  T      -0.09741357      -2.08483826       0.18189915      -0.04579891       0.02827646       0.02228642      -9.35271549
Ru       9.03434277       6.38522959      13.43058491  F       0.00000000       0.00000000       0.00000000       0.02489422       0.17073986      -0.57755935      -8.48774433
Ru      -5.21248520       9.72929095      18.03095028  T      -1.08924293      -0.10046115      -1.23807054      -0.01291429      -0.01490345      -0.04874054      -9.36963081
Ru      -0.38408541       7.47593892      20.05277454  T       0.46748521       0.63739271      -2.91755877      -0.01540491       0.01233308      -0.00356740      -7.85782862
Ru       4.42339225       9.03617696      18.52462312  T      -0.70672257       0.25135359       0.54382660      -0.01440835       0.00637226       0.00709060      -8.66909695
Ru       1.70713055       6.38541269      14.53246593  F       0.00000000       0.00000000       0.00000000      -0.39198682       0.21091557      -0.44515148      -8.54638863
Ru       6.52606038       7.42858324      19.22969853  T       3.33238120      -1.14581925      -3.13146815       0.01203072       0.03770643      -0.03022087      -7.69134331
Ru      -7.54378439      10.87935110      17.42346076  T       0.51444559       3.41897740       1.42691330      -0.02515374      -0.01731543      -0.00501332      -9.40662670
Ru      -2.99926981       8.61543683      19.43613944  T       0.43470988      -0.85275474      -1.04000779       0.02432661      -0.01061001       0.00937141      -8.05147076
Ru       2.16865275       9.81003057      17.13853408  T      -0.16814982      -0.75373725      -1.69411500      -0.00723067       0.01080552      -0.01169777      -9.45486832
N       -2.31901979       3.53888312      21.12000027  T       3.28950942      -1.12184817      -3.41239373      -0.04907446      -0.02625370       0.01778370      -9.39647579
H       -2.01731701       3.69212992      22.08717023  T      -0.57500533      -0.10984362      -0.07219950       0.02221480       0.00900841       0.07911462      -3.80374265
