82
Lattice="14.653685569763184 -3.0000001167615996e-16 -2.204113721847534 -8.411406517028809 11.436505317687988 1.0077073574066162 -0.0 3.5000000656357872e-15 28.464778900146484" Properties=species:S:1:pos:R:3:move_mask:L:1:momenta:R:3:forces:R:3:energies:R:1 adsorbate_info="_JSON {\"site\": {\"coordinates\": [-3.40306878, 11.34107971, 19.69664955], \"connectivity\": 1, \"topology\": [52], \"n_vector\": [0.5002725548949554, 0.06215160936867167, 0.8636344992366608], \"h_vector\": [1.0, 0.0, 0.0], \"site_formula\": {\"Ru\": 1}}, \"smiles\": \"Cl\", \"mdf\": 1.739228786988773, \"adsorbate_formula\": \"HN\"}" bond_change_count=0 energy=-773.9725341796875 stress="0.0005300957709550858 -8.300918125314638e-06 -8.411053568124771e-05 -8.300918125314638e-06 0.0006023755413480103 -2.0547995518427342e-05 -8.411053568124771e-05 -2.0547995518427342e-05 0.00010107815614901483" free_energy=-773.9725341796875 pbc="T T F"
Ta      10.72976685       0.09530421      14.02861214  F       0.00000000       0.00000000       0.00000000       0.04685472      -0.58831108      -1.83077145     -12.47660637
Ta       1.09641480       1.23895478      14.02861214  F       0.00000000       0.00000000       0.00000000      -1.26658630      -0.34615743       0.34074160     -11.45156670
Ta       1.35759601       4.79383114      16.51589695  T      -1.79330813       0.40609076       3.35254722       0.00945282      -0.01845521       0.00346723     -12.84039307
Ta       6.19263512       2.30725699      18.83141237  T      -1.42466465      -2.68032287       0.08543793      -0.00496659       0.00671723       0.00431721     -12.16151619
Ta      11.18154381       3.67025117      17.22617755  T      -1.29224285       1.18050662       4.29270122      -0.02602750      -0.01826083      -0.00916886     -12.16217995
Ta       7.67973314       2.23959285      15.04785040  T      -0.71653884       2.76330167      -5.45980696      -0.03568063       0.00932133      -0.00890052     -12.93134403
Ta      -2.22277094       3.27298030      14.99169299  T      -1.56383860       0.07275686      -3.40211058      -0.00384343       0.01831874      -0.02036327     -11.68247795
Ta       2.75020890       1.01840390      17.61365064  T      -0.50687787       1.49484285       5.88583072       0.02244925       0.02203760      -0.02464986     -12.88597679
Ta       3.10928845       4.47929811      13.17848206  F       0.00000000       0.00000000       0.00000000       0.24275029       0.56554741       1.36076903     -11.03761101
Ta       7.95351158       5.77971854      18.26554211  T      -0.94847887       2.90930686       1.94174423      -0.03033870       0.02731496       0.02324659     -11.78880882
Ta       6.52406359       5.81355715      14.53246593  F       0.00000000       0.00000000       0.00000000       0.02963342      -0.55068487      -1.87686539     -12.47987270
Ta      -3.10928845       6.95720768      14.53246593  F       0.00000000       0.00000000       0.00000000      -1.23848188      -0.37961382       0.31481418     -11.45541573
Ta      -2.90061156      10.53346559      17.02417964  T       3.14960642      -1.79569001      -0.36205161       0.04457110       0.00125962       0.04466963     -12.84079742
Ta       2.03793560       7.99365451      19.34624128  T      -3.39212723      -1.22611404       0.73027488      -0.03145254      -0.00579989      -0.00560817     -11.51430893
Ta       6.94679857       9.34319609      17.69216031  T      -0.28137887      -0.44632166       4.00718599      -0.01777911      -0.03070748      -0.03556871     -12.22265053
Ta       3.46503121       7.93657641      15.54624158  T       2.24625157       0.93128644      -3.62086228       0.00394378       0.01541301      -0.00315845     -12.92798615
Ta      -6.44284840       8.97616152      15.48944514  T      -0.12228159       0.49302337      -3.11791871       0.01080942       0.03312379      -0.01327598     -11.64056969
Ta      -1.57643517       6.85201307      18.14226851  T       0.80457591      -0.71532237       0.16183079       0.01470453       0.01854603       0.00397575     -12.88390350
Ta      -1.09641480      10.19755077      13.68233585  F       0.00000000       0.00000000       0.00000000       0.17350104       0.57704276       1.26901972     -11.04344940
Ta       3.71851546      11.49477323      18.76416871  T      -0.94196873       2.24002502       4.94515438      -0.02910078       0.02808112       0.00517571     -11.79073429
Ru       9.90902594       1.08903855      16.28202416  T      -0.53022292      -0.37831331      -0.76061079      -0.00464395      -0.00952470       0.00706610      -9.48804092
Ru       0.34690165       2.07772258      16.47841759  T      -1.54739367       0.22338542       0.98926848      -0.00444204       0.01111094       0.02577392      -9.33410645
Ru       1.02883389       5.41189649      18.93062298  T      -0.42942731      -1.68196242      -1.10202653      -0.01979998      -0.01717201      -0.01755863      -8.40707397
Ru       5.41565323       3.33552551      14.28071499  F       0.00000000       0.00000000       0.00000000      -0.78365123       0.79560536      -1.04163551      -8.13948536
Ru      10.43598652       4.47917604      12.07660198  F       0.00000000       0.00000000       0.00000000       0.80350012       0.64408356       0.90276361      -7.30942392
Ru      10.23236179       2.76397467      14.28036213  F       0.00000000       0.00000000       0.00000000       0.87557518       0.39439327       0.29442662      -9.31942749
Ru       0.59900963       3.90762520      14.28036213  F       0.00000000       0.00000000       0.00000000       0.32178622      -1.32359958       0.29306439      -8.23059654
Ru       5.13045851       1.67632436      16.47817021  T      -1.85265116       1.27987893       0.92783412      -0.01612628      -0.00973783       0.01064148      -9.53595257
Ru       5.74335418       4.75522579      19.08680640  T       0.45661072      -0.17716426      -1.21844903      -0.01779073       0.00170881       0.01585592      -7.78937054
Ru      -0.04591698       0.50775187      18.90313057  T       0.23728509       2.35400078       0.90643826       0.02087024       0.01533227      -0.03401165      -8.87908363
Ru      12.52507818       1.66512762      15.26066719  T       0.72053470      -0.26982778      -0.23248567      -0.01074964      -0.01233828       0.00194246      -9.39500046
Ru       2.99122030       2.58892776      15.15730030  T       1.02336597      -1.11988704      -1.64839069      -0.00882582       0.02025262       0.00089519      -9.25400257
Ru       7.74312325       0.62530385      17.69818922  T       1.09484274      -0.08733849       2.22444180       0.03133486       0.02175009      -0.01243783      -8.59372807
Ru       7.92622137       3.90744233      13.17848206  F       0.00000000       0.00000000       0.00000000      -0.15962890       0.89486849       0.35864291      -7.71648455
Ru      -1.65752282       5.20672671      19.91387988  T       0.12211662       1.33050219      -2.40658831       0.03651959       0.03695528      -0.00217885      -7.98445129
Ru       8.42340183       1.23907673      12.92637920  F       0.00000000       0.00000000       0.00000000       0.20687434      -1.49696350       0.43237045      -7.48091936
Ru      -1.34527908       2.49375336      20.01071312  T       0.19645570      -0.54057861      -0.09248788       0.01825249      -0.03462870      -0.00744776      -7.96059513
Ru       3.14997567      -0.04657182      14.91423904  T      -1.64728580       2.38648460      -2.27648696       0.01572521      -0.02117942       0.00191883      -8.84613419
Ru       3.56669367       3.70118436      17.78314448  T      -1.20842662      -1.23282948       0.34114766       0.01440654       0.02976067      -0.01445986      -9.10523891
Ru       8.90436314       4.74314023      15.74176360  T       0.44905065       1.13000666       0.06902001      -0.01784045       0.00192293       0.02091014      -9.35789967
Ru       3.99946883       5.14619398      15.71249394  T      -0.36670446      -0.48595812       1.97112258       0.01523695       0.00094759       0.01358192      -9.37069988
Ru      13.24004555       0.66697699      12.92673206  F       0.00000000       0.00000000       0.00000000       0.15922393       0.26488090      -0.52520156      -8.49919701
Ru      -1.00075416       4.01742341      17.53574721  T      -1.00752130       0.09724567      -0.65978079      -0.02395395      -0.03480709      -0.02859119      -9.39184856
Ru       3.81378107       1.90031216      19.60379379  T       2.60140083       1.10972390      -4.49833430       0.01844770      -0.01766777      -0.00682384      -8.23799133
Ru       8.59402825       3.21844568      17.93172462  T       0.50856026       1.76496336       1.21544334       0.01880339       0.03963766       0.00832319      -8.76647758
Ru       5.91283369       0.66715997      14.02861214  F       0.00000000       0.00000000       0.00000000      -0.47503513       0.19827515      -0.28554299      -8.48371887
Ru      10.75022409       1.76545742      18.71410780  T       1.85602779      -1.52661444      -4.84092033       0.00246596      -0.02459289      -0.02306020      -7.66125870
Ru      -3.33480650       5.18884542      16.93463277  T       0.03243539      -0.20670265       2.82029284       0.00442725      -0.02354199      -0.01400509      -9.43293571
Ru       1.24328185       2.78724043      18.89940231  T       1.13291394      -0.18828517       0.05247972       0.01855008       0.02567530      -0.03554115      -8.08504581
Ru       6.35715838       4.14455530      16.60040794  T      -1.15900201      -0.73174269      -1.61925748      -0.02025962      -0.02762366      -0.02705780      -9.44538498
Ru       5.68711935       6.79911775      16.79524877  T      -0.13118435       0.41045547       0.49354372       0.00087336      -0.00148616       0.00383836      -9.45437145
Ru      -3.89908242       7.81647836      16.96111562  T       0.27775146       0.01562066      -1.30452260       0.01936884       0.01904645       0.02942356      -9.38374138
Ru      -3.29788480      11.24514927      19.60833356  T       1.87195889      -0.24952711      -3.79732098       0.03452909      -0.05898148      -0.05819279      -8.88365078
Ru       1.20994973       9.05377865      14.78456879  F       0.00000000       0.00000000       0.00000000      -0.70140648       0.80412209      -1.12177515      -8.13892078
Ru       6.23028326      10.19742870      12.58045483  F       0.00000000       0.00000000       0.00000000       0.77683800       0.64298856       0.87252331      -7.33522081
Ru       6.02665806       8.48222733      14.78421593  F       0.00000000       0.00000000       0.00000000       0.85318416       0.32929903       0.37263823      -9.33120441
Ru      -3.60669374       9.62587833      14.78421593  F       0.00000000       0.00000000       0.00000000       0.35564914      -1.24743462       0.26308522      -8.22668839
Ru       0.91439305       7.39780669      16.93666308  T       1.18484431       1.71508136      -1.35810306      -0.00820871       0.01200213      -0.01091733      -9.47037125
Ru       1.46338429      10.49447812      19.54571451  T       0.35052814      -1.89199379      -0.31257953       0.01670170       0.00871694      -0.03344135      -7.66921282
Ru      -4.18375448       6.22970218      19.44301378  T      -0.77800707      -1.16863265       0.00699589      -0.00352632       0.01331349      -0.03081459      -8.88911629
Ru       8.32899568       7.35518940      15.77716170  T       1.04441166       0.36357681       0.50621084      -0.01363286       0.00413942       0.02845740      -9.39518166
Ru      -1.21415425       8.31870747      15.66249930  T       0.35985965      -2.19212183      -1.50011563      -0.01240632       0.03346334       0.00768699      -9.24647713
Ru       3.63687015       6.30166182      18.34673810  T      -1.33164722      -1.24169135       2.78432397       0.02091435       0.00204907      -0.01233467      -8.62180233
Ru       3.72051811       9.62569523      13.68233585  F       0.00000000       0.00000000       0.00000000      -0.18656880       0.85114872       0.34754252      -7.68401480
Ru      -5.99257706      10.93471178      20.46587488  T      -1.34520566       1.27583961      -3.77487592       0.03022254       0.02425559       0.00154141      -8.09035969
Ru       4.21769905       6.95732975      13.43023300  F       0.00000000       0.00000000       0.00000000       0.20857747      -1.55455744       0.43705466      -7.50592899
Ru      -5.56663478       8.20022557      20.53458312  T      -0.06024637      -0.12580733      -0.84339646      -0.00077361      -0.01337313      -0.01093232      -7.91226578
Ru      -1.04306454       5.69358770      15.41375054  T      -1.79215577       0.29353770      -0.75516514       0.01458376      -0.00703535      -0.01075891      -8.84355545
Ru      -0.71185470       9.49072889      18.28456051  T      -0.66059793      -0.47777584       0.91381822      -0.01088327       0.07615140       0.01352364      -8.98722363
Ru       4.64522044      10.45727039      16.23242322  T       1.72671085       1.81093909       2.26680020       0.00667635       0.00042525       0.01263463      -9.36616516
Ru      -0.19886607      10.86504915      16.19030985  T       0.09113911      -2.25031288       0.99790126      -0.00305590       0.00160191       0.03728001      -9.39673805
Ru       9.03434277       6.38522959      13.43058491  F       0.00000000       0.00000000       0.00000000       0.09162422       0.14500161      -0.61712021      -8.49338150
Ru      -5.23072879       9.72705389      18.10139577  T      -1.06820597       0.15911388      -0.76001852       0.01078863      -0.00903821       0.01287162      -9.40296936
Ru      -0.24528431       7.63826451      20.00363946  T       1.62187467       0.34738938      -5.39016446      -0.01513726       0.00375549       0.00336778      -7.92445898
Ru       4.35999850       8.92432326      18.43660699  T       3.19437278       0.56909830       4.04867718       0.01888307       0.01526740       0.02554245      -8.78002357
Ru       1.70713055       6.38541269      14.53246593  F       0.00000000       0.00000000       0.00000000      -0.40960109       0.17701815      -0.40733135      -8.47103310
Ru       6.53569352       7.47383569      19.22256016  T       2.83505266      -0.02237125      -2.82628956       0.02004397      -0.01680493      -0.01283866      -7.68340302
Ru      -7.56064289      10.90104257      17.43543082  T       0.42650692       0.01766890       0.62714192       0.01127543      -0.03583574      -0.00480208      -9.41465950
Ru      -2.97781131       8.59914380      19.38904879  T       1.94879644      -0.03654069      -0.62269630      -0.03466947       0.02486709       0.00247008      -7.97489023
Ru       2.13191976       9.82403719      17.12130078  T      -1.71940255      -1.23656295      -0.36608281      -0.00456289       0.01260634      -0.00816740      -9.40490532
N       -2.95501061      12.40394348      21.21611173  T      -1.21291422       2.23763304       1.96922789      -0.00684109       0.08653180      -0.04348698      -9.11845779
H       -2.91598684      11.96954363      22.14285243  T       0.53908783      -0.03623763       0.03490170      -0.01312589      -0.07174024       0.05694167      -3.75170803
