82
Lattice="14.653685569763184 -3.0000001167615996e-16 -2.204113721847534 -8.411406517028809 11.436505317687988 1.0077073574066162 -0.0 3.5000000656357872e-15 28.464778900146484" Properties=species:S:1:pos:R:3:move_mask:L:1:momenta:R:3:forces:R:3:energies:R:1 adsorbate_info="_JSON {\"site\": {\"coordinates\": [1.91104496, 8.10085773, 19.44454575], \"connectivity\": 1, \"topology\": [13], \"n_vector\": [-0.5053206271101951, -0.069069437358239, 0.8601630523569211], \"h_vector\": [1.0, 0.0, 0.0], \"site_formula\": {\"Ta\": 1}}, \"smiles\": \"Cl\", \"mdf\": 1.7392287869887726, \"adsorbate_formula\": \"HN\"}" bond_change_count=0 energy=-773.465087890625 stress="0.0005186499911360443 -2.5064384317374788e-05 -8.182452438632026e-05 -2.5064384317374788e-05 0.0005553567898459733 -2.4364306227653287e-05 -8.182452438632026e-05 -2.4364306227653287e-05 9.167376265395433e-05" free_energy=-773.465087890625 pbc="T T F"
Ta      10.72976685       0.09530421      14.02861214  F       0.00000000       0.00000000       0.00000000      -0.09738240      -0.69674897      -1.92574584     -12.48977566
Ta       1.09641480       1.23895478      14.02861214  F       0.00000000       0.00000000       0.00000000      -1.10161722      -0.34382582       0.28276139     -11.44043541
Ta       1.31467474       4.86750734      16.50259774  T      -1.80565793       0.46298781       3.36294694      -0.01552823       0.00327146      -0.01022777     -12.80289650
Ta       6.27028951       2.28782773      18.81073509  T      -0.74919419      -2.60349213      -0.01831863      -0.00483918       0.03601517      -0.00150672     -11.51347446
Ta      11.14075306       3.67124962      17.12631719  T      -1.26737695       1.18330913       4.30892649      -0.03187186      -0.01518952       0.00150800     -12.29605770
Ta       7.68649853       2.21071249      15.03789805  T      -0.70414252       2.75470071      -5.45749327       0.00339552       0.01147918       0.01397109     -12.91823864
Ta      -2.23695351       3.23608662      14.91956013  T      -1.55797582       0.06844672      -3.39327489       0.00235224      -0.00815907       0.01567507     -11.58329391
Ta       2.70236587       1.10034474      17.58974773  T      -1.12195997       1.50039395       4.68183487      -0.00134609       0.00791480       0.00268018     -12.86328888
Ta       3.10928845       4.47929811      13.17848206  F       0.00000000       0.00000000       0.00000000       0.34385371       0.50825351       1.43335915     -11.00162029
Ta       7.97045562       5.84368468      18.21987218  T      -0.93650491       2.91092485       1.92554362      -0.01479590       0.07688701       0.02258956     -11.84338856
Ta       6.52406359       5.81355715      14.53246593  F       0.00000000       0.00000000       0.00000000      -0.04695078      -0.65661532      -1.84808171     -12.47726250
Ta      -3.10928845       6.95720768      14.53246593  F       0.00000000       0.00000000       0.00000000      -1.26001084      -0.14313966       0.29689750     -11.47031403
Ta      -2.82899696      10.52717009      17.02546021  T       3.10242692      -1.64088555       0.08243729      -0.02050170      -0.00583285      -0.03164375     -12.86632633
Ta       1.96989770       8.25166043      19.53943692  T      -1.72274219      -1.16139517      -2.04942035      -0.00747269       0.01041731      -0.05724746     -12.38774490
Ta       7.03826117       9.37189441      17.71720398  T      -0.31223354      -0.17713205       4.18267516      -0.03980500      -0.04101589       0.02994454     -12.20956421
Ta       3.47329855       7.91171122      15.55347823  T       2.16067772       0.95181827      -3.46178897      -0.00891249       0.03761819       0.00629640     -12.90235806
Ta      -6.41671730       8.99464549      15.46733012  T      -0.13004771       0.48053961      -3.14820903       0.02460241      -0.01296106       0.01950479     -11.66483498
Ta      -1.34990060       6.61098355      17.89490194  T       1.36834600      -0.59289036       0.24226571       0.03575134      -0.01166320       0.00664574     -12.96201801
Ta      -1.09641480      10.19755077      13.68233585  F       0.00000000       0.00000000       0.00000000       0.27972019       0.63174272       1.45269156     -11.02881813
Ta       3.81366412      11.64637920      18.79031418  T      -0.89830656       2.19257252       4.91482375      -0.00992119       0.00805336       0.01439244     -11.74952030
Ru       9.91113348       1.12061820      16.28452372  T      -0.56043961      -0.32116326      -0.90277604       0.01229830      -0.00787608       0.02800262      -9.47025299
Ru       0.34317772       2.04293390      16.47154468  T      -1.59865061       0.24144728       0.98517118       0.00128715       0.01111206      -0.00397447      -9.34485531
Ru       0.94608365       5.46380802      18.88455649  T      -1.34290744      -1.15860549      -0.99005339      -0.02310642       0.03961515       0.04286781      -8.41765308
Ru       5.41565323       3.33552551      14.28071499  F       0.00000000       0.00000000       0.00000000      -0.87023401       0.88740039      -1.05110264      -8.15300465
Ru      10.43598652       4.47917604      12.07660198  F       0.00000000       0.00000000       0.00000000       0.78971922       0.58764178       0.69334084      -7.33848047
Ru      10.23236179       2.76397467      14.28036213  F       0.00000000       0.00000000       0.00000000       0.93571639       0.34249520       0.22363870      -9.31057739
Ru       0.59900963       3.90762520      14.28036213  F       0.00000000       0.00000000       0.00000000       0.22741804      -1.36665237       0.18196124      -8.23635197
Ru       5.11546161       1.71879483      16.42175748  T      -1.52528264       1.36264634       0.53814286       0.01296492       0.00403758       0.00064972      -9.44958401
Ru       5.70974725       4.82080194      19.03450531  T       0.37059660      -0.16152846      -1.14275058       0.01668704       0.03223816       0.00207678      -7.65376043
Ru       0.03768904       0.47889569      18.88305551  T       0.15387932       2.21351003       1.01529788      -0.01054281       0.03593498       0.00787204      -8.98290920
Ru      12.52758403       1.57950731      15.26809499  T       0.73639418      -0.28197059      -0.23932698      -0.00116702       0.00853880       0.00713897      -9.42730141
Ru       2.94366223       2.64291638      15.23501100  T       1.00883493      -1.06303774      -1.72216347       0.00343239       0.00167524      -0.02132975      -9.23199272
Ru       7.79923487       0.61411306      17.74648438  T       0.99628018      -0.03582052       2.32101236       0.02118850       0.00037372       0.01169759      -8.64271164
Ru       7.92622137       3.90744233      13.17848206  F       0.00000000       0.00000000       0.00000000      -0.19942564       0.87174654       0.40581268      -7.69457245
Ru      -1.71265681       5.19674297      19.84870357  T       0.37934713       1.70275242      -2.44688865       0.02701128       0.03866098       0.02717420      -8.06275940
Ru       8.42340183       1.23907673      12.92637920  F       0.00000000       0.00000000       0.00000000       0.15899301      -1.66451299       0.43659773      -7.54081964
Ru      -1.26173530       2.53762059      19.98949994  T       0.21135433      -0.55438286      -0.08357655       0.00618356       0.00546208       0.01137809      -7.87564707
Ru       3.17367014      -0.01125390      14.90543901  T      -1.61238963       2.33673451      -2.28511451       0.00776780      -0.01627889      -0.01725340      -8.83507061
Ru       3.40732201       4.07890799      18.03520746  T      -1.42326180      -0.72319583       0.14431608       0.03521824       0.00931904       0.00638099      -8.84170151
Ru       8.84668679       4.73840265      15.74283166  T       0.43580438       1.12518746       0.07400555      -0.01476224      -0.00120093       0.01223934      -9.39100266
Ru       3.98887711       5.10304183      15.74256177  T      -0.34762664      -0.50933694       1.94194843       0.00087107      -0.00544457      -0.01858876      -9.34023762
Ru      13.24004555       0.66697699      12.92673206  F       0.00000000       0.00000000       0.00000000       0.09817897       0.13786447      -0.69527489      -8.52863121
Ru      -1.05607543       3.92755597      17.49494062  T      -1.04068726       0.11416134      -0.64562010       0.01924465      -0.01047423      -0.00501868      -9.39472580
Ru       3.97377946       1.99405908      19.45201969  T       2.00482107       1.81310646      -3.94355815      -0.00609374      -0.00639033      -0.03217727      -8.08083153
Ru       8.58584796       3.28782193      18.00922884  T       0.55920782       1.77049099       1.16376722      -0.02303859       0.00587058       0.00085166      -8.76414108
Ru       5.91283369       0.66715997      14.02861214  F       0.00000000       0.00000000       0.00000000      -0.27276874       0.12961915      -0.39694601      -8.48197365
Ru      10.82121505       1.90989494      18.74666496  T       1.94470802      -1.38611434      -4.75491906       0.02519542      -0.00725105       0.01672578      -7.66818285
Ru      -3.37678067       5.17485129      16.88708770  T       0.04741960      -0.18546441       2.83323153       0.02686328      -0.00811739      -0.01031668      -9.44931126
Ru       1.26481756       2.81088760      18.86674579  T       1.30746388      -0.04662239       0.15515229       0.01206079       0.02174152      -0.00947411      -8.07249928
Ru       6.34689186       4.10784740      16.62819893  T      -1.13975695      -0.66372828      -1.71882618       0.01956482      -0.00265524       0.00018334      -9.36455250
Ru       5.67902602       6.78562965      16.79153177  T      -0.09032279       0.41150650       0.50626285       0.03089030       0.01666141       0.02774572      -9.46921921
Ru      -3.86280420       7.79014315      16.98695410  T       0.35017599       0.07282457      -1.20651114      -0.01157854       0.03178604       0.00785080      -9.31101990
Ru      -3.22757702      11.13161401      19.41848889  T       2.13372133       0.10916033      -2.36721540      -0.00377546       0.03403874       0.02837968      -8.39629650
Ru       1.20994973       9.05377865      14.78456879  F       0.00000000       0.00000000       0.00000000      -0.62835431       0.91007400      -0.97034907      -8.12395000
Ru       6.23028326      10.19742870      12.58045483  F       0.00000000       0.00000000       0.00000000       0.80499840       0.62019986       0.81552756      -7.29082108
Ru       6.02665806       8.48222733      14.78421593  F       0.00000000       0.00000000       0.00000000       0.83484560       0.24144006       0.24111083      -9.29997635
Ru      -3.60669374       9.62587833      14.78421593  F       0.00000000       0.00000000       0.00000000       0.27094126      -1.24553800       0.35046509      -8.22360706
Ru       0.99487845       7.53945054      17.04787737  T       1.06309145       1.60360280      -1.45701413       0.01770546       0.01349831       0.01035677      -9.46227074
Ru       1.57963455      10.70610531      19.52417991  T       0.25735574      -1.26713164      -0.23133791       0.04200774       0.03018308      -0.01972649      -7.79333448
Ru      -4.17641286       6.26261436      19.33955156  T      -0.86775513      -1.13317518      -0.07133800       0.01887038       0.01287741       0.01768440      -8.88360023
Ru       8.29723211       7.37422155      15.76217512  T       1.05318040       0.35782785       0.52777101      -0.00200182       0.03045010      -0.03566217      -9.42979908
Ru      -1.22312015       8.34812573      15.70453878  T       0.31057035      -2.20741660      -1.47718140      -0.00168446       0.00118713       0.00762632      -9.26932621
Ru       3.56918584       6.61052083      18.36829312  T      -1.17725285      -1.53720081       2.55235539       0.00723135      -0.01467516       0.00651696      -8.57704067
Ru       3.72051811       9.62569523      13.68233585  F       0.00000000       0.00000000       0.00000000      -0.22410731       0.83563137       0.42215043      -7.66531944
Ru      -5.86546414      10.97235708      20.42332664  T      -1.91618265       0.39886563      -3.21753751       0.03716242       0.01970396      -0.00857371      -7.99221563
Ru       4.21769905       6.95732975      13.43023300  F       0.00000000       0.00000000       0.00000000       0.19386625      -1.65971065       0.50516731      -7.54183292
Ru      -5.48558960       8.23776492      20.50047534  T       0.12149577      -0.06702303      -0.85157011      -0.01271075       0.00531070       0.01719168      -7.95801783
Ru      -1.05843274       5.66513080      15.34501713  T      -1.81051563       0.29233735      -0.74421131      -0.00056675       0.01381336      -0.00953941      -8.80621243
Ru      -0.62071628       9.42227031      18.37878897  T      -1.30050599      -1.06583217       1.34329497       0.02428374       0.03940660      -0.02564253      -9.09186554
Ru       4.72581170      10.41784034      16.21985301  T       1.75327965       1.83038715       2.25225199      -0.02224598       0.01045049       0.00190249      -9.34057999
Ru      -0.17163805      10.83910332      16.24741768  T       0.04344246      -2.23169304       1.04182923      -0.01313627      -0.03101084      -0.00020954      -9.36455727
Ru       9.03434277       6.38522959      13.43058491  F       0.00000000       0.00000000       0.00000000       0.04014182       0.31584743      -0.51840544      -8.49091911
Ru      -5.20507167       9.71697641      18.03278463  T      -0.96754159      -0.18747792      -1.01444659       0.01702398      -0.00681007      -0.01781371      -9.39869499
Ru      -0.35716066       7.51448247      20.07918467  T       4.71236799       1.14001749      -4.03342073      -0.04066306      -0.02585261      -0.02415841      -8.50458527
Ru       4.47529074       9.11850283      18.51245734  T       3.37408270       0.64909045       3.91803545      -0.02004708      -0.02698056      -0.00025787      -8.73336601
Ru       1.70713055       6.38541269      14.53246593  F       0.00000000       0.00000000       0.00000000      -0.46843502       0.37282717      -0.41579080      -8.58949375
Ru       6.55347534       7.51059454      19.21551474  T       2.89250510       0.02334329      -2.84420634       0.02556181      -0.02039669      -0.05156022      -7.72923565
Ru      -7.52288117      10.86838611      17.40825175  T       0.38705755       0.00247168       0.58640256      -0.00172731       0.00849316      -0.00546411      -9.42650604
Ru      -2.86152135       8.49146774      19.34488100  T       2.02336730       0.44223768      -0.30872229      -0.00126846       0.01366538      -0.00608318      -8.03855038
Ru       2.23110981       9.88847222      17.11613901  T      -1.67297743      -1.12963883      -0.51435034       0.03389874      -0.00020895       0.01287141      -9.45580006
N        1.12228633       7.75151850      21.24984615  T      -3.71935158      -2.23657842       2.01381888      -0.00624263       0.01145831       0.01647979      -8.54065609
H        0.98904955       7.57706682      22.24968382  T      -0.66485230       0.79333803      -0.20340655      -0.00633024      -0.02881489       0.04061061      -3.74839902
