82
Lattice="14.653685569763184 -3.0000001167615996e-16 -2.204113721847534 -8.411406517028809 11.436505317687988 1.0077073574066162 -0.0 3.5000000656357872e-15 28.464778900146484" Properties=species:S:1:pos:R:3:move_mask:L:1:momenta:R:3:forces:R:3:energies:R:1 adsorbate_info="_JSON {\"site\": {\"coordinates\": [12.237409512263996, 1.366078137437336, 18.121954440248615], \"connectivity\": 3, \"topology\": [19, 36, 46], \"n_vector\": [0.33656077291811204, -0.4199561194463209, 0.8428307682283263], \"h_vector\": [0.5143122846571127, -0.6991637586031949, -0.4966416338836632], \"site_formula\": {\"Ta\": 1, \"Ru\": 2}}, \"smiles\": \"S1S\", \"mdf\": 1.6874178368732407, \"adsorbate_formula\": \"HN\"}" bond_change_count=0 energy=-774.608642578125 stress="0.0005600599688477814 7.773253855702933e-06 -9.132338163908571e-05 7.773253855702933e-06 0.0006108609959483147 -4.2345251131337136e-05 -9.132338163908571e-05 -4.2345251131337136e-05 0.00010723214654717594" free_energy=-774.608642578125 pbc="T T F"
Ta      10.72976685       0.09530421      14.02861214  F       0.00000000       0.00000000       0.00000000       0.11609234      -0.63568652      -1.83764291     -12.47453594
Ta       1.09641480       1.23895478      14.02861214  F       0.00000000       0.00000000       0.00000000      -1.23616886      -0.35994869       0.22611445     -11.43797112
Ta       1.32382574       4.82300390      16.48728117  T       2.53454908       1.18109952      -1.88013719      -0.00735891       0.02326083       0.05186006     -12.79969788
Ta       6.23564305       2.28810050      18.79086280  T      -1.84315961       2.16585831      -0.25707142      -0.05138636       0.03003474       0.00774866     -11.54138470
Ta      11.16929815       3.54600792      17.15203884  T       1.79413345       0.95461605       2.55876660      -0.00133830       0.00163290       0.01019001     -12.23205948
Ta       7.69951393       2.19776821      15.05615947  T      -0.02938951      -4.92125210      -2.28980262      -0.00876293       0.00189188      -0.01732540     -12.91198921
Ta      -2.23220349       3.25726370      14.98265245  T      -1.28179305      -1.49134876       0.21691113      -0.01601601       0.02477625       0.00747657     -11.62782478
Ta       2.62470812       1.14808926      17.66971453  T      -1.42936298       0.08930722       2.24871028      -0.01569898      -0.02062349      -0.05304396     -12.86239243
Ta       3.10928845       4.47929811      13.17848206  F       0.00000000       0.00000000       0.00000000       0.33400825       0.50659823       1.43574321     -11.02662468
Ta       7.94546666       5.87220168      18.27906779  T      -0.90885806      -0.24152642       2.94725528       0.03745013      -0.03176785      -0.00383919     -11.75644207
Ta       6.52406359       5.81355715      14.53246593  F       0.00000000       0.00000000       0.00000000       0.06376995      -0.70413411      -1.86254144     -12.47367859
Ta      -3.10928845       6.95720768      14.53246593  F       0.00000000       0.00000000       0.00000000      -1.21130788      -0.33124983       0.26505646     -11.43371677
Ta      -2.88621683      10.54417464      16.98934008  T       1.67469240      -2.09165211       3.60909751       0.00549662       0.04267204       0.03847456     -12.80842400
Ta       2.03166131       8.02323609      19.32340101  T      -3.87366315       0.86243677       1.82862264      -0.08252394       0.01474904       0.00707436     -11.51503754
Ta       7.01203030       9.35824478      17.73726714  T       0.56818891       0.80242621       2.42675188       0.05494899       0.07176909      -0.03993690     -12.16240692
Ta       3.48774402       7.90001377      15.55553555  T      -0.95996270      -0.95318717       0.28398385      -0.01865015       0.02356802      -0.00589466     -12.91285515
Ta      -6.43117263       8.98192711      15.46285392  T      -0.41919101      -1.47131981      -0.44076973      -0.01440096       0.01163909       0.00932723     -11.63618088
Ta      -1.56964817       6.80006731      18.12490314  T       1.33412674       1.14476491       2.50552720      -0.01165173       0.00328186      -0.03065038     -12.85591698
Ta      -1.09641480      10.19755077      13.68233585  F       0.00000000       0.00000000       0.00000000       0.34673023       0.55009329       1.49449015     -11.03121090
Ta       3.77131013      11.56928912      18.74505004  T       0.24194700       1.77867285       2.57827687      -0.01538253       0.05304317       0.02031467     -12.28402996
Ru       9.97693551       1.07381205      16.31454303  T       1.60329396      -0.01857596      -0.01261436       0.00482867       0.01021869      -0.00833468      -9.47471714
Ru       0.32848897       2.05219443      16.45807768  T      -0.83515968      -0.68582962       1.71601411       0.01129593       0.01260768       0.01137866      -9.37436485
Ru       1.09996897       5.48383455      18.89007699  T       1.60600138       1.09466901       1.59381289       0.00823474      -0.01634470      -0.00328949      -8.50078201
Ru       5.41565323       3.33552551      14.28071499  F       0.00000000       0.00000000       0.00000000      -0.68621892       0.90772808      -1.07876158      -8.13601208
Ru      10.43598652       4.47917604      12.07660198  F       0.00000000       0.00000000       0.00000000       0.77356702       0.65796161       0.87328732      -7.32415962
Ru      10.23236179       2.76397467      14.28036213  F       0.00000000       0.00000000       0.00000000       0.89129138       0.22985959       0.35493791      -9.32515907
Ru       0.59900963       3.90762520      14.28036213  F       0.00000000       0.00000000       0.00000000       0.15402448      -1.27037144       0.17344007      -8.24337292
Ru       5.09823604       1.72067441      16.41355242  T       0.09737786       1.27636650       0.27923501       0.01157485      -0.03378811      -0.00923156      -9.44316483
Ru       5.76854958       4.77245993      19.09274251  T       1.20191886      -2.11273066      -0.98933035       0.01670790       0.01005030      -0.00818941      -7.78340101
Ru       0.05998783       0.45242974      18.87576102  T      -0.46845788       0.99606493       1.25179888       0.06083506      -0.03438943      -0.04302500      -8.89590168
Ru      12.55190822       1.62099853      15.33515425  T      -0.53450123      -0.42925414       0.49300095      -0.03352634       0.01111117       0.01520386      -9.40626240
Ru       2.96344777       2.61645628      15.18559849  T       0.10898516      -1.06887088      -1.03964395       0.01447512      -0.00252117      -0.00922029      -9.23434162
Ru       7.89416838       0.68076383      17.83353127  T      -0.01328212      -0.75396833       0.43840767      -0.00702640       0.02851513       0.00911148      -8.70121670
Ru       7.92622137       3.90744233      13.17848206  F       0.00000000       0.00000000       0.00000000      -0.18854055       0.80366850       0.49026883      -7.67292070
Ru      -1.65816960       5.14421810      19.86370487  T      -1.42425563      -0.73411739      -1.21190945       0.02041894       0.03508306      -0.01084214      -7.93671322
Ru       8.42340183       1.23907673      12.92637920  F       0.00000000       0.00000000       0.00000000       0.15698397      -1.61962605       0.51733983      -7.53241920
Ru      -1.26951370       2.45800709      20.01364776  T      -1.59306908      -2.50381904       1.69302140      -0.04574478      -0.03720170       0.00968775      -8.87064171
Ru       3.15231190      -0.02468376      14.90380899  T      -1.06616829       0.24162293      -1.87705421      -0.00232639       0.00744344       0.01037829      -8.85014153
Ru       3.48960058       3.90045849      17.91578773  T       0.36409010       1.69314005       0.39137167       0.00741099       0.02010834      -0.00374000      -8.97121143
Ru       8.86904546       4.71585329      15.73713972  T       0.88334514       1.50420830       0.10653464       0.00282589       0.00161183       0.01081061      -9.35139179
Ru       4.02351252       5.12093850      15.73371553  T       1.39061653      -0.65250631       1.17451539      -0.00004412       0.03398955       0.00581773      -9.33835697
Ru      13.24004555       0.66697699      12.92673206  F       0.00000000       0.00000000       0.00000000       0.03707714       0.20885596      -0.48279718      -8.51032066
Ru      -1.01260857       3.96429356      17.52728477  T       1.06190127       0.71664198       1.55130997      -0.00628811       0.02261303       0.01414713      -9.36775875
Ru       3.96230765       1.92370565      19.50524961  T      -0.23671107       1.10182925      -3.26145027       0.01669335       0.00816081       0.00990283      -7.94693995
Ru       8.60853783       3.37357777      18.05517245  T       2.43175291      -0.51978987      -0.45960218       0.02499977      -0.02056342      -0.01372972      -8.80750084
Ru       5.91283369       0.66715997      14.02861214  F       0.00000000       0.00000000       0.00000000      -0.25655910       0.29528445      -0.48365307      -8.53251553
Ru      10.64895146       1.75441594      18.76343172  T       1.92737857      -0.96978172      -3.64700868      -0.04432619       0.02728272       0.00998908      -8.42256832
Ru      -3.34437343       5.15842662      16.94223032  T       2.11603350       0.73462076       0.06694766      -0.02043712      -0.01308958       0.00400820      -9.42719555
Ru       1.23386365       2.84902980      18.90763640  T      -0.10634902      -0.06938720      -0.27878755       0.00471148       0.03582630      -0.00409678      -8.05433750
Ru       6.38266494       4.09348387      16.62265574  T       1.35515112       0.87631750      -0.97303652      -0.01532937       0.01936203       0.00284122      -9.40404606
Ru       5.72694191       6.79147036      16.78540745  T      -2.32705305       1.74132786      -1.21335437      -0.02186130       0.01986801      -0.02719781      -9.47363377
Ru      -3.88307579       7.78440150      16.96917284  T       0.71730530      -1.99562790       0.27442424       0.00914226      -0.02419136      -0.00759138      -9.36390495
Ru      -3.14922376      11.16209849      19.40261162  T       0.04411405       0.01019377      -0.39088260       0.03887418      -0.02721937       0.00152823      -8.48407078
Ru       1.20994973       9.05377865      14.78456879  F       0.00000000       0.00000000       0.00000000      -0.77897644       0.94114792      -1.13220668      -8.13368416
Ru       6.23028326      10.19742870      12.58045483  F       0.00000000       0.00000000       0.00000000       0.73625654       0.64785939       0.78472024      -7.32234669
Ru       6.02665806       8.48222733      14.78421593  F       0.00000000       0.00000000       0.00000000       0.95432192       0.26106083       0.31033355      -9.30906677
Ru      -3.60669374       9.62587833      14.78421593  F       0.00000000       0.00000000       0.00000000       0.16180187      -1.33176517       0.12137437      -8.24166775
Ru       0.89968605       7.44795558      16.92358910  T      -0.19761164       1.78391832       0.00174820      -0.00688298      -0.03808206      -0.01845650      -9.42740822
Ru       1.52562709      10.47635154      19.52767678  T       2.72547059       1.31536151      -1.12339678       0.00987846       0.02853775       0.01180345      -7.75926113
Ru      -4.20220625       6.12455914      19.45177969  T       0.93227148       0.14939542       2.61549783       0.02707371       0.01492154      -0.04194660      -8.89788818
Ru       8.33799287       7.35215632      15.77584425  T      -0.63711982       0.42652256       0.54485109      -0.00981915       0.01935028      -0.00123090      -9.40500736
Ru      -1.23866357       8.34743056      15.69622424  T      -1.20853008      -1.67680932      -3.18478041       0.01673658       0.01229443      -0.00356521      -9.23657799
Ru       3.72030229       6.40485035      18.39924893  T      -0.21213682       0.09110174       3.03773108       0.00311962      -0.00103629       0.02080727      -8.64694023
Ru       3.72051811       9.62569523      13.68233585  F       0.00000000       0.00000000       0.00000000      -0.24475570       0.81458503       0.46675950      -7.65614796
Ru      -5.80357611      10.89419736      20.41514397  T      -3.12547110       0.32720977      -1.56639794      -0.03451383      -0.01419684      -0.04326257      -7.91448879
Ru       4.21769905       6.95732975      13.43023300  F       0.00000000       0.00000000       0.00000000       0.18043144      -1.62196171       0.44548339      -7.53469610
Ru      -5.50488225       8.17146903      20.54396536  T      -2.29085955       0.31611656      -0.31834124       0.01507473       0.04138545      -0.00709119      -8.00577545
Ru      -1.06220333       5.69325988      15.41008539  T      -1.86940242      -0.69945581      -2.15276091       0.00899537      -0.01526671       0.00513319      -8.84539127
Ru      -0.78053951       9.59536187      18.41043910  T      -0.33196228       1.15803354      -0.61836299      -0.01849452       0.00878505       0.01026453      -8.94669056
Ru       4.69758905      10.42365174      16.21374869  T       0.80817695      -0.16390483      -0.40075752       0.01493590       0.00533654       0.02657133      -9.36329079
Ru      -0.17504261      10.85477448      16.25287723  T      -0.10713541      -2.09756040       0.19474561      -0.00036629       0.02788817       0.00706437      -9.33885193
Ru       9.03434277       6.38522959      13.43058491  F       0.00000000       0.00000000       0.00000000       0.07863539       0.13475634      -0.58356947      -8.50726032
Ru      -5.21566973       9.71056668      18.03511931  T      -1.07646976      -0.10746489      -1.23538633      -0.00458088       0.01730040       0.00137487      -9.38334560
Ru      -0.27401639       7.61826171      19.97265774  T       0.64024979       0.87081315      -2.96333130       0.04079551      -0.00176072      -0.00446296      -7.91591454
Ru       4.41115564       9.02496100      18.48293328  T      -0.76826734       0.33166563       0.43842212       0.01555773       0.01828440       0.01597662      -8.79016304
Ru       1.70713055       6.38541269      14.53246593  F       0.00000000       0.00000000       0.00000000      -0.35780877       0.25778216      -0.46417511      -8.54412460
Ru       6.51280069       7.51817437      19.25941404  T       3.35216354      -1.15798371      -3.12442207      -0.00238311       0.03465927       0.06544334      -7.74892139
Ru      -7.52147287      10.86902071      17.41430732  T       0.52683902       3.40569880       1.38708733      -0.02458291      -0.01519547       0.00509170      -9.41250134
Ru      -3.01979578       8.50920955      19.38771374  T       0.48684656      -0.96964500      -0.98896110       0.01911825       0.05268338      -0.00745324      -8.01679516
Ru       2.20416631       9.80886355      17.09302962  T      -0.19531923      -0.78607967      -1.64590625      -0.05710606       0.03674824       0.01351968      -9.40995502
N       12.53359968       1.47229251      19.30456425  T      -1.64267298       0.43552624      -1.43087189       0.06903560       0.03970924      -0.05449109      -9.12775898
H       12.83167007       1.67043772      20.26745362  T       0.81312437       0.96100429      -0.28198353      -0.01709194       0.04068537      -0.00318311      -3.82021642
