57
Lattice="9.379960060119629 0.0 6.000000233523199e-16 1.4999999525016814e-15 9.379960060119629 6.000000233523199e-16 0.0 0.0 31.26653480529785" Properties=species:S:1:pos:R:3:move_mask:L:1:momenta:R:3:forces:R:3:energies:R:1 adsorbate_info="_JSON {\"site\": {\"coordinates\": [0.0, 6.25330687, 19.54158401], \"connectivity\": 1, \"topology\": [35], \"n_vector\": [0.13663185740852254, 0.13260790736041575, 0.9817061059434176], \"h_vector\": [1.0, 0.0, 0.0], \"site_formula\": {\"Re\": 1}}, \"smiles\": \"Cl\", \"mdf\": 1.7392287020680963, \"adsorbate_formula\": \"H2N\"}" bond_change_count=0 energy=-560.0531005859375 stress="0.00046588858822360635 3.4765318559948355e-05 4.2458446841919795e-05 3.4765318559948355e-05 0.00039200871833600104 -6.59299530525459e-06 4.2458446841919795e-05 -6.59299530525459e-06 7.748728239675984e-05" free_energy=-560.0531005859375 pbc="T T F"
Ti       1.56332672       1.56332672      11.72495079  F       0.00000000       0.00000000       0.00000000      -0.01291982      -0.02004803       0.29176444      -8.31337738
Ti       1.54904381       1.47252727      14.77101671  T      -0.77718787       0.90007045       0.19154874       0.00152176      -0.00615788      -0.00894220      -9.51825714
Ti       1.86540555       1.70792087      17.98077139  T       0.03171689      -2.00704228       1.49093344      -0.00154853       0.01446328      -0.05260630      -9.25371361
Ti       1.56332672       4.68998003      11.72495079  F       0.00000000       0.00000000       0.00000000      -0.03163684       0.01448174       0.33063510      -8.30711365
Ti       1.53335711       4.78997793      14.77970945  T       1.31191901       0.29841952      -0.48192198       0.00005111       0.01679876      -0.03653531      -9.51046085
Ti       1.54888628       4.53532817      17.78669574  T       0.45767419       0.13741622       1.83592694      -0.03413965       0.04414313      -0.01048934      -9.59597969
Ti       1.56332672       7.81663370      11.72495079  F       0.00000000       0.00000000       0.00000000       0.02554083       0.00823584       0.36779240      -8.26961327
Ti       1.58796261       7.83310544      14.84742383  T      -0.27969764      -0.38881654      -0.41995154      -0.06232264       0.02617966      -0.03119642      -9.52028275
Ti       1.96101934       8.12666322      18.50040791  T       0.43846412      -0.57538328       1.20063543      -0.01975150      -0.06495151       0.01343131      -9.25543690
Ti       4.68998003       1.56332672      11.72495079  F       0.00000000       0.00000000       0.00000000       0.01615452      -0.02532259       0.26763946      -8.32456493
Ti       4.71637050       1.49942743      14.75750539  T      -0.86021102      -0.26411760      -0.44074105       0.00599599       0.01548831      -0.00724853      -9.52670670
Ti       4.77583347       1.55560605      18.15350677  T      -0.00317344      -0.21952399       2.38776802      -0.05032498       0.01982078      -0.02677458      -8.96182632
Ti       4.68998003       4.68998003      11.72495079  F       0.00000000       0.00000000       0.00000000       0.01039983       0.00914515       0.25035340      -8.32823753
Ti       4.71832555       4.76786817      14.73294475  T       1.01721903      -0.16715442      -0.85424203      -0.02638082      -0.03709748       0.00139612      -9.43955135
Ti       4.71280861       4.44500102      17.56764214  T      -0.69126190       0.74186882       0.84194346       0.00949207      -0.04228780       0.02152392      -9.50145245
Ti       4.68998003       7.81663370      11.72495079  F       0.00000000       0.00000000       0.00000000       0.00693325      -0.00685338       0.33749622      -8.28572559
Ti       4.71781124       7.78005199      14.82707038  T       0.97145861      -0.11046895      -1.55299455      -0.02114597      -0.01366213      -0.01282731      -9.54807758
Ti       4.75006285       8.00396499      18.37553795  T      -0.01887119       0.51885277       2.07986366       0.01084073       0.00209332      -0.01735713      -8.73520851
Ti       7.81663370       1.56332672      11.72495079  F       0.00000000       0.00000000       0.00000000       0.01358739      -0.03177468       0.31633604      -8.30181599
Ti       7.86783996       1.45066926      14.79466614  T      -0.15592016       0.97167124      -0.11704880      -0.01737569       0.04465029      -0.02696515      -9.50457668
Ti       7.65827252       1.62870759      17.97423357  T       0.23879439      -0.59263894       2.49183701      -0.06059913      -0.00224848       0.02181184      -9.24007416
Ti       7.81663370       4.68998003      11.72495079  F       0.00000000       0.00000000       0.00000000       0.02657336       0.01062079       0.31812671      -8.30926800
Ti       7.85488213       4.79168883      14.77248954  T       0.40939058       0.32588242      -1.70748794      -0.01413142      -0.03046735       0.02269979      -9.47233009
Ti       7.88253200       4.69441199      17.70697407  T       0.38275146       0.62216289       1.62012308       0.03581221      -0.01304765       0.02631698      -9.39865017
Ti       7.81663370       7.81663370      11.72495079  F       0.00000000       0.00000000       0.00000000      -0.00300934       0.01725322       0.38712034      -8.25657654
Ti       7.85345045       7.83163424      14.87399273  T      -0.33574896       0.43434785      -0.86390256       0.04322559      -0.02505587      -0.02427936      -9.53273296
Ti       7.70448043       7.95964512      18.46317340  T       0.27652853       0.80591885       1.73873726      -0.03306285      -0.02280646      -0.01110058      -9.26118374
Re       0.00000000       0.00000000      13.28827763  F       0.00000000       0.00000000       0.00000000       0.03142925      -0.34875542      -0.50712734     -11.30542183
Re       0.06520193      -0.05553497      16.69133965  T      -0.28282554      -1.37821568      -0.84095924      -0.00025859      -0.04694806       0.03568450     -12.11131668
Re       0.15464727       0.29072585      19.18012312  T       1.70552211      -1.03982372       0.30074803      -0.03217487      -0.05410820       0.04210263      -9.80579662
Re       0.00000000       3.12665343      13.28827763  F       0.00000000       0.00000000       0.00000000      -0.00113761       0.09866555      -0.11876944     -11.40859413
Re       0.03130557       3.01685463      16.28254538  T       0.37172891      -1.53601657      -0.04482955      -0.04502429       0.01613688      -0.06666705     -11.73832798
Re      -0.49742017       3.23417147      19.72863936  T      -0.65299631       0.06710175      -1.09622116      -0.04416716       0.06726675       0.01903582     -10.80060101
Re       0.00000000       6.25330687      13.28827763  F       0.00000000       0.00000000       0.00000000       0.01868921       0.26696539      -0.30485880     -11.32966137
Re       0.08669245       6.53363052      16.65274810  T      -0.22850789      -0.93982063      -2.85386208       0.00350880       0.00030615      -0.02275127     -11.97831631
Re       0.15667951       6.38563191      19.22983931  T       1.73901567      -0.33711926      -5.42290243      -0.02041763      -0.00178757      -0.03082234     -10.73230076
Re       3.12665343       0.00000000      13.28827763  F       0.00000000       0.00000000       0.00000000      -0.02993708      -0.26521611      -0.41230276     -11.34060478
Re       3.29730169      -0.01756895      16.43638208  T      -0.49355938       0.45176324      -2.32337461      -0.02625789      -0.02250300       0.07296450     -11.67141151
Re       1.48300551       2.07101782      20.55595015  T      -1.10030595       1.83851651      -0.33494679       0.05478009       0.03781727      -0.01900920      -9.16977882
Re       3.12665343       3.12665343      13.28827763  F       0.00000000       0.00000000       0.00000000      -0.09510749       0.12247901      -0.16952617     -11.42760086
Re       3.12183554       3.04977792      16.12264175  T       0.97880500       0.19052635      -0.86559308      -0.01047564      -0.04271777       0.03085576     -11.68038940
Re       1.53773971       4.54425647      20.57818611  T       0.02727282       0.65252415      -0.82840869      -0.00066456       0.00467840      -0.01982697      -9.24399948
Re       3.12665343       6.25330687      13.28827763  F       0.00000000       0.00000000       0.00000000      -0.08839075       0.14364271      -0.32556769     -11.33830166
Re       3.13311483       6.42555834      16.60291281  T       0.61916052       1.45328884      -0.25733435      -0.05308794       0.06760100       0.02843988     -12.01979160
Re       3.25892259       5.97012345      19.11129346  T       0.27165722      -3.76994497       0.17033487       0.05101975      -0.00930589      -0.04056686     -10.35133648
Re       6.25330687       0.00000000      13.28827763  F       0.00000000       0.00000000       0.00000000       0.21094489      -0.28939322      -0.44550103     -11.33973312
Re       6.19750336      -0.03649248      16.48516185  T       1.13884463       1.39652267      -2.74540223       0.02693950      -0.03337646      -0.03898136     -11.64942551
Re       3.63889511       3.32871883      19.78329510  T       0.34464559      -0.54272227      -0.16492173      -0.08941777      -0.02780002      -0.01822603     -10.41936684
Re       6.25330687       3.12665343      13.28827763  F       0.00000000       0.00000000       0.00000000       0.22561496       0.07867757      -0.16440777     -11.42235374
Re       6.33067146       3.01501861      16.15654150  T      -0.84136223       2.54143405       0.71221391      -0.00028411       0.00145860       0.03651871     -11.71037483
Re       6.20959541       3.45470160      19.58565982  T      -0.37496630      -0.02253138      -1.18928582      -0.03633879      -0.00965750      -0.00153679      -9.26764297
Re       6.25330687       6.25330687      13.28827763  F       0.00000000       0.00000000       0.00000000       0.23692015       0.20011643      -0.33884287     -11.33643150
Re       6.28266427       6.46860520      16.62610592  T       0.95686052      -1.13046810      -0.83938731      -0.06193441       0.05718476      -0.02265182     -11.91649723
Re       6.23801474       5.97977409      19.21924083  T       2.08254958       2.85199824      -2.29623568      -0.00094835       0.05254722       0.06317669     -10.06511784
N       -1.57040699       6.72878996      20.36549315  T      -2.50704489       1.26677481       2.23853369      -0.00107995       0.00542581       0.01162598     -10.39411831
H       -1.53736228       6.17011506      21.23019693  T      -0.01193428       0.33919651      -0.03745885      -0.00865592       0.00410667       0.02378109      -3.78054547
H       -1.63075452       7.71658475      20.67675780  T      -0.44157033       0.46445314      -0.27859783      -0.03186585       0.02490010      -0.00436310      -3.82520247
