75
Lattice="8.208702087402344 0.0 -0.6319061517715454 -3.009857416152954 14.187996864318848 -0.7898827195167542 0.0 0.0 30.647449493408203" Properties=species:S:1:pos:R:3:move_mask:L:1:momenta:R:3:forces:R:3:energies:R:1 adsorbate_info="_JSON {\"site\": {\"coordinates\": [0.54154634, 3.54699922, 19.00655365], \"connectivity\": 1, \"topology\": [13], \"n_vector\": [0.13167348587825295, -0.0989302425909398, 0.9863442098058707], \"h_vector\": [1.0, 0.0, 0.0], \"site_formula\": {\"In\": 1}}, \"smiles\": \"Cl\", \"mdf\": 1.724295665837533, \"adsorbate_formula\": \"HNO\"}" bond_change_count=0 energy=-554.0015869140625 stress="0.00040725432336330414 1.0371302778366953e-05 -2.9770497349090874e-05 1.0371302778366953e-05 0.0001971465244423598 -1.9973123926320113e-05 -2.9770497349090874e-05 -1.9973123926320113e-05 0.0001903702359413728" free_energy=-554.0015869140625 pbc="T T F"
In       4.09865046       3.54699922      11.58165550  F       0.00000000       0.00000000       0.00000000      -0.03686668      -0.03234449      -0.48761773      -2.27205825
In       7.10850811       3.54699922      12.37153816  F       0.00000000       0.00000000       0.00000000      -0.34425005      -0.01650323      -0.07566224      -3.18094802
In       1.08879316       3.54699922      10.79177284  F       0.00000000       0.00000000       0.00000000       0.12388623      -0.01441989      -0.66197962      -2.20993614
In       2.36570239      10.64099789      12.05558491  F       0.00000000       0.00000000       0.00000000      -0.00147200       0.02333058      -0.40337765      -3.13185787
In       4.55468941      10.64099789       9.84391308  F       0.00000000       0.00000000       0.00000000      -0.33281285       0.03337165      -1.00569868      -2.05380726
In      -0.64415509      10.64099789      11.26570225  F       0.00000000       0.00000000       0.00000000       0.28498375       0.02530394      -0.53101712      -2.69903970
In       4.86426808       3.53731030      14.69657861  T       0.38424657      -1.19495947       2.77611849      -0.02853122       0.01579817       0.02783032      -3.20601797
In      -0.39158343       3.53899660      16.16101961  T       0.34436898      -1.40457473      -0.57065523      -0.00707931       0.02363294      -0.03240541      -3.16757393
In       1.86096242       3.53871109      14.12886211  T       0.38782673      -1.18277880       4.87159042       0.02722438       0.01167601      -0.04535958      -3.17512918
In       3.20572490      10.61506345      15.03458838  T      -1.73847388       1.13376190      -1.23006680      -0.01865053       0.05097962       0.01037794      -3.15768766
In       5.37555981      10.64099789      12.84546757  F       0.00000000       0.00000000       0.00000000       0.14147981       0.09921239       0.20533764      -3.17884803
In       0.19540043      10.60941754      14.28491684  T       1.87097887      -1.39454218       0.21022179       0.00595342       0.00945833      -0.01944418      -3.17134118
In       5.56344237       3.55126846      17.66061309  T      -1.84613478       0.47462188       1.64518593      -0.00913032       0.08823563       0.02221005      -3.06703186
In       0.40422231       3.94036678      19.66126256  T       1.11197386      -5.59049199      -5.65467925      -0.01434989       0.01877469      -0.02680746      -2.53397489
In       2.61843171       3.54917752      17.27125161  T      -0.01607495      -0.64920722      -0.59993678      -0.02807338       0.04192023       0.02587467      -3.01236796
In       4.22380983      10.44422759      18.44174735  T       0.85051269       1.68337688       2.77197830      -0.00204906       0.01076716      -0.02498233      -2.25331688
In      -1.97257067      10.63541525      16.50485582  T       1.61219944       1.10170917      -0.37948983       0.00457414       0.03111046      -0.00327624      -3.14987540
In       1.03276280      10.71777456      17.55400972  T      -0.47415703       0.93609090      -0.27779385      -0.00125640       0.00736782      -0.00549543      -2.45781803
N        3.64693452      -0.00586195      13.25583831  T       0.09562475      -0.30410621      -0.56979295       0.02847316      -0.00126221      -0.02895981     -11.82693481
N        5.83159876       0.00000000      11.10772610  F       0.00000000       0.00000000       0.00000000       0.48919719       0.03869217       1.47078180      -9.56755447
N        0.63275415       0.00000000      12.52951431  F       0.00000000       0.00000000       0.00000000      -0.22531959      -0.21921939      -0.89358640     -11.83292961
N        2.82174134       7.09399843      10.31784344  F       0.00000000       0.00000000       0.00000000      -1.47111917       1.56529784       3.79390478      -8.03992939
N        5.83159876       7.09399843      11.10772610  F       0.00000000       0.00000000       0.00000000       0.72935659       0.01099777       1.73145366      -9.43544960
N        0.63275415       7.09399843      12.52951431  F       0.00000000       0.00000000       0.00000000      -0.35148194      -0.12779088      -1.01421630     -11.77106380
N        4.44753534      -0.05218664      16.21963012  T      -0.14124430      -0.05438995       0.12515368      -0.01814643      -0.03823147      -0.01640268     -11.58597565
N        6.64695170      -0.01037247      14.07177540  T      -0.21510968       0.03775930       0.24646441       0.00390642       0.03570350      -0.02346676     -11.67656898
N        1.43329146       0.01264514      15.44547535  T      -0.16298759       0.20126671      -0.26290607      -0.05319361      -0.02293681       0.02539906     -11.62469482
N        3.65185903       7.07242968      13.27603589  T       0.11260224       0.19512744      -0.24436496       0.01406099       0.02535626      -0.06764694     -11.68172169
N        6.65552798       7.09096137      14.06785840  T       0.00422359      -0.36668924      -0.30218885      -0.02498609      -0.02081608       0.03596316     -11.66022301
N        1.44398240       7.08209721      15.44713117  T       0.16653780       0.04884882      -0.24924329       0.05067322       0.02056188       0.01011420     -11.51799297
N        5.39325207       0.17855679      18.87519898  T       1.34640264       1.81557282      -3.27635119       0.01255675       0.00450130      -0.02097437      -8.75588799
N        7.49567316       0.01249983      17.03498367  T       0.01275918      -0.21545824       0.47732002       0.01273524       0.00886727       0.00312662     -11.69807053
N        2.23011472       0.03095532      18.22290439  T      -0.45485999      -0.09842183      -1.67421469      -0.00941613       0.00637881      -0.01738624      -9.88466072
N        4.42247314       7.14385779      16.22202721  T      -0.15462556      -0.00152905       0.12552836      -0.03689823       0.03453216      -0.04177470     -11.72918987
N       -0.68368323       7.11046562      17.63851291  T       0.45390814       0.14682937       0.34637607      -0.03181297      -0.03875589       0.02711722     -11.81800079
N        2.19713270       7.08557405      18.25663489  T      -1.10970944       0.01660617      -1.77299836      -0.02804930       0.00683388      -0.02319182      -9.90724945
Ti       4.09865046       8.21739006      11.58165550  F       0.00000000       0.00000000       0.00000000      -0.15812168      -2.35544205      -1.52089214      -8.48207664
Ti      -1.10019410       8.21739006      13.00344467  F       0.00000000       0.00000000       0.00000000      -0.19425012      -0.51008832      -0.65837467      -8.39655399
Ti       1.08879316       8.21739006      10.79177284  F       0.00000000       0.00000000       0.00000000       1.98166251      -1.39043856       0.27199489      -7.36215401
Ti       2.36570239       5.97060633      12.05558491  F       0.00000000       0.00000000       0.00000000       0.12194135       1.18219233      -1.38699949      -8.40791512
Ti       5.37555981       5.97060633      12.84546757  F       0.00000000       0.00000000       0.00000000       0.25211293       0.46122432      -0.77783793      -8.37929821
Ti      -0.64415509       5.97060633      11.26570225  F       0.00000000       0.00000000       0.00000000      -0.91609788       1.19349396       1.26567161      -7.28257751
Ti       2.36570239       1.12339199      12.05558491  F       0.00000000       0.00000000       0.00000000      -0.44546768      -0.47742906       0.51235807      -7.68034458
Ti       5.37555981       1.12339199      12.84546757  F       0.00000000       0.00000000       0.00000000       0.21813846      -0.49694210      -0.72250700      -8.37825394
Ti       7.56454706       1.12339199      10.63379574  F       0.00000000       0.00000000       0.00000000      -0.85989231      -1.22188008       1.16852939      -7.30677509
Ti       4.09865046      13.06460476      11.58165550  F       0.00000000       0.00000000       0.00000000      -0.00885598       0.44394034      -0.71177053      -8.38488388
Ti      -1.92106426      13.06460476      10.00189018  F       0.00000000       0.00000000       0.00000000       0.29553038       0.45231104       1.42843497      -6.49670315
Ti       1.08879316      13.06460476      10.79177284  F       0.00000000       0.00000000       0.00000000       0.80979776       0.87358719       0.16171776      -7.40519905
Ti       4.92358703       8.21735064      14.49798303  T      -0.13818033      -1.23155205      -0.77383785      -0.00624235      -0.00118190      -0.00918670      -8.22008991
Ti      -0.26329718       8.20431403      15.94250946  T      -0.97724145      -0.69676479      -0.10510949       0.00267377       0.02549575      -0.02153139      -8.18700886
Ti       1.91777735       8.19767612      13.70644783  T      -0.49366678      -0.32429827       0.15347140      -0.00341531       0.02090010      -0.00649825      -8.24149704
Ti       3.19085855       5.98470451      15.00870757  T       0.73892579      -0.23628019      -0.08448043      -0.04168335      -0.00287122      -0.00585990      -8.22318935
Ti       6.15504519       5.98944915      15.80379311  T      -0.33280569       1.48645155       0.72797878      -0.02048179      -0.03646988      -0.02959055      -8.22045517
Ti       0.15768133       5.96756881      14.19168600  T       0.85206669       0.83743763      -0.58364615       0.01013984      -0.00280315      -0.01106744      -8.24135780
Ti       3.19272131       1.09528855      14.97835910  T       0.59147456      -1.37796565      -1.10873616       0.03230607       0.05169024      -0.00602496      -8.18059635
Ti       6.16807844       1.10343593      15.77797502  T       0.28404342      -0.77481512       1.49178009       0.02886458       0.02795279       0.02155713      -8.14723206
Ti       0.15084370       1.11234340      14.17525489  T      -0.52406939      -0.65338640      -0.13298939       0.00581650       0.01208873       0.01432095      -8.25599194
Ti       4.91354173      13.05817492      14.54102094  T       0.22126177       0.65482543      -0.10456289       0.04115673      -0.00036140      -0.02452704      -8.17024422
Ti      -1.10019410      13.06460476      13.00344467  F       0.00000000       0.00000000       0.00000000      -0.00391791       0.01802874      -0.99082881      -8.28426075
Ti       1.90191030      13.04856559      13.69304748  T      -0.24919364      -0.18034427      -0.60984302      -0.01210164       0.00860280       0.02009381      -8.24757481
Ti       5.78391786       8.23046709      17.31145266  T      -0.48651263      -0.76496155      -1.41982559      -0.05406721       0.03881036      -0.05197807      -7.61430454
Ti       0.64049778       8.06381602      18.77555120  T       1.11191270      -1.89374346      -3.00923271       0.03243977       0.00758183      -0.03416048      -7.60517693
Ti       2.68776866       8.25202838      16.66637263  T      -0.60909079      -1.00425969       0.26516398       0.02805214       0.00788492      -0.05066306      -8.41629028
Ti       3.98090995       6.05544901      17.98662769  T      -0.98165154       1.23648993      -1.24215319       0.03161713      -0.00486344       0.02302468      -8.71673012
Ti      -1.49996893       5.93610736      19.22499553  T      -0.29449843      -1.60958771       1.71557191      -0.01648545      -0.06440789       0.06366861      -7.85913181
Ti       0.94883918       5.94061287      17.14011455  T      -0.84298871       0.68369231      -0.73845082      -0.02550451      -0.06927471      -0.04086194      -8.47544765
Ti       3.95005121       1.00650684      17.89260814  T      -0.61618286      -3.73764840       0.74017152      -0.00875872       0.03342524       0.04174283      -8.30051136
Ti       6.91843623       1.18178103      18.55673062  T      -1.02923079      -2.51400574      -1.45234236      -0.04776102      -0.04249216       0.03133261      -7.72349310
Ti       0.96493556       1.15949243      17.07688792  T      -0.79095254      -0.63561573       0.94156084      -0.01451245      -0.00743308       0.01670814      -8.30654430
Ti      -2.33578465      13.12428262      17.89823365  T       1.66048195       2.32673819      -2.46242863      -0.01320695       0.01898061       0.03154199      -7.50452709
Ti      -0.31027396      13.02315125      15.83870228  T      -1.15023413       0.68451144      -0.17753347       0.01186303       0.01400613       0.00873169      -8.36586475
Ti       2.75906434      13.04178734      16.61484200  T      -0.47249919       1.62209673       0.52752516       0.04305483      -0.03552469       0.03197867      -8.42001629
N       -2.16882152       5.73041738      20.99914216  T      -0.03979022       4.90952414       5.17375504       0.01531509       0.02624070       0.01281798      -7.97247362
O       -3.24054798       5.75515419      20.20483173  T      -1.26272987       3.22497588      -0.74916899       0.01931576       0.05256816      -0.00746512      -5.65604496
H       -2.41410795       5.59704929      21.97245681  T      -0.44624616      -0.30423904       0.11886928       0.01491031       0.03251515       0.02363817      -3.38988304
