82
Lattice="14.653685569763184 -3.0000001167615996e-16 -2.204113721847534 -8.411406517028809 11.436505317687988 1.0077073574066162 -0.0 3.5000000656357872e-15 28.464778900146484" Properties=species:S:1:pos:R:3:move_mask:L:1:momenta:R:3:forces:R:3:energies:R:1 adsorbate_info="_JSON {\"site\": {\"coordinates\": [12.237409512263996, 1.366078137437336, 18.121954440248615], \"connectivity\": 3, \"topology\": [19, 36, 46], \"n_vector\": [0.33656077291811204, -0.4199561194463209, 0.8428307682283263], \"h_vector\": [0.5143122846571127, -0.6991637586031949, -0.4966416338836632], \"site_formula\": {\"Ta\": 1, \"Ru\": 2}}, \"smiles\": \"S1S\", \"mdf\": 1.6874178368732407, \"adsorbate_formula\": \"HN\"}" bond_change_count=0 energy=-774.608642578125 stress="0.0005600776057690382 7.771541277179495e-06 -9.132577542914078e-05 7.771541277179495e-06 0.0006108781672082841 -4.2342424421804026e-05 -9.132577542914078e-05 -4.2342424421804026e-05 0.00010724516323534772" free_energy=-774.608642578125 pbc="T T F"
Ta      10.72976685       0.09530421      14.02861214  F       0.00000000       0.00000000       0.00000000       0.11608861      -0.63568574      -1.83762085     -12.47453499
Ta       1.09641480       1.23895478      14.02861214  F       0.00000000       0.00000000       0.00000000      -1.23614061      -0.35996148       0.22613689     -11.43797493
Ta       1.32383407       4.82299665      16.48729672  T       2.53454908       1.18109952      -1.88013719      -0.00738692       0.02330089       0.05179328     -12.79971409
Ta       6.23562949       2.28811395      18.79087665  T      -1.84315961       2.16585831      -0.25707142      -0.05136526       0.02996673       0.00774139     -11.54139042
Ta      11.16930045       3.54601053      17.15203454  T       1.79413345       0.95461605       2.55876660      -0.00131094       0.00163332       0.01018643     -12.23206520
Ta       7.69951416       2.19776843      15.05616643  T      -0.02938951      -4.92125210      -2.28980262      -0.00876706       0.00188929      -0.01738143     -12.91200066
Ta      -2.23219551       3.25726864      14.98265974  T      -1.28179305      -1.49134876       0.21691113      -0.01605415       0.02478224       0.00746042     -11.62783718
Ta       2.62471324       1.14807986      17.66972616  T      -1.42936298       0.08930722       2.24871028      -0.01572705      -0.02061766      -0.05303252     -12.86240005
Ta       3.10928845       4.47929811      13.17848206  F       0.00000000       0.00000000       0.00000000       0.33398271       0.50661224       1.43574882     -11.02662849
Ta       7.94547327       5.87218839      18.27906307  T      -0.90885806      -0.24152642       2.94725528       0.03745383      -0.03176296      -0.00383747     -11.75644875
Ta       6.52406359       5.81355715      14.53246593  F       0.00000000       0.00000000       0.00000000       0.06376307      -0.70412934      -1.86252725     -12.47368050
Ta      -3.10928845       6.95720768      14.53246593  F       0.00000000       0.00000000       0.00000000      -1.21129012      -0.33126810       0.26508602     -11.43372154
Ta      -2.88620897      10.54416601      16.98935923  T       1.67469240      -2.09165211       3.60909751       0.00546193       0.04271978       0.03838390     -12.80844116
Ta       2.03164924       8.02324663      19.32341350  T      -3.87366315       0.86243677       1.82862264      -0.08250177       0.01470079       0.00705303     -11.51504421
Ta       7.01201874       9.35824886      17.73725824  T       0.56818891       0.80242621       2.42675188       0.05499095       0.07175646      -0.03993297     -12.16241741
Ta       3.48774490       7.90001467      15.55554339  T      -0.95996270      -0.95318717       0.28398385      -0.01865358       0.02356841      -0.00595212     -12.91286469
Ta      -6.43116488       8.98193433      15.46286040  T      -0.41919101      -1.47131981      -0.44076973      -0.01444113       0.01164684       0.00931227     -11.63619518
Ta      -1.56964391       6.80006136      18.12491944  T       1.33412674       1.14476491       2.50552720      -0.01167073       0.00326469      -0.03064799     -12.85592651
Ta      -1.09641480      10.19755077      13.68233585  F       0.00000000       0.00000000       0.00000000       0.34670436       0.55011022       1.49450231     -11.03121376
Ta       3.77131111      11.56927653      18.74505169  T       0.24194700       1.77867285       2.57827687      -0.01536220       0.05302726       0.02030689     -12.28402615
Ru       9.97693437       1.07380937      16.31454713  T       1.60329396      -0.01857596      -0.01261436       0.00481213       0.01022325      -0.00831604      -9.47472191
Ru       0.32849146       2.05219797      16.45808073  T      -0.83515968      -0.68582962       1.71601411       0.01129019       0.01259114       0.01138727      -9.37436581
Ru       1.09995184       5.48383847      18.89008999  T       1.60600138       1.09466901       1.59381289       0.00824853      -0.01635908      -0.00329667      -8.50077724
Ru       5.41565323       3.33552551      14.28071499  F       0.00000000       0.00000000       0.00000000      -0.68620193       0.90770298      -1.07876766      -8.13601685
Ru      10.43598652       4.47917604      12.07660198  F       0.00000000       0.00000000       0.00000000       0.77359790       0.65794927       0.87330145      -7.32414007
Ru      10.23236179       2.76397467      14.28036213  F       0.00000000       0.00000000       0.00000000       0.89128971       0.22984967       0.35494515      -9.32516193
Ru       0.59900963       3.90762520      14.28036213  F       0.00000000       0.00000000       0.00000000       0.15404940      -1.27033150       0.17349344      -8.24335766
Ru       5.09823849       1.72067141      16.41355483  T       0.09737786       1.27636650       0.27923501       0.01157605      -0.03379273      -0.00922508      -9.44316864
Ru       5.76854328       4.77247334      19.09274378  T       1.20191886      -2.11273066      -0.98933035       0.01672190       0.01005346      -0.00818009      -7.78338957
Ru       0.05998911       0.45243604      18.87575622  T      -0.46845788       0.99606493       1.25179888       0.06084093      -0.03437682      -0.04302000      -8.89590168
Ru      12.55190497       1.62099813      15.33515866  T      -0.53450123      -0.42925414       0.49300095      -0.03351806       0.01111189       0.01519172      -9.40626335
Ru       2.96344571       2.61646002      15.18560406  T       0.10898516      -1.06887088      -1.03964395       0.01448625      -0.00253410      -0.00922540      -9.23434353
Ru       7.89414358       0.68075365      17.83352647  T      -0.01328212      -0.75396833       0.43840767      -0.00700048       0.02858552       0.00911240      -8.70119381
Ru       7.92622137       3.90744233      13.17848206  F       0.00000000       0.00000000       0.00000000      -0.18854789       0.80365008       0.49028498      -7.67291498
Ru      -1.65817179       5.14420896      19.86372713  T      -1.42425563      -0.73411739      -1.21190945       0.02043098       0.03510976      -0.01090300      -7.93670511
Ru       8.42340183       1.23907673      12.92637920  F       0.00000000       0.00000000       0.00000000       0.15697058      -1.61959815       0.51737052      -7.53241301
Ru      -1.26951156       2.45800138      20.01364933  T      -1.59306908      -2.50381904       1.69302140      -0.04579097      -0.03723344       0.00972223      -8.87063408
Ru       3.15232246      -0.02467639      14.90381408  T      -1.06616829       0.24162293      -1.87705421      -0.00233638       0.00744763       0.01037205      -8.85014248
Ru       3.48961846       3.90043947      17.91577601  T       0.36409010       1.69314005       0.39137167       0.00736899       0.02011837      -0.00374579      -8.97124100
Ru       8.86904686       4.71585382      15.73713841  T       0.88334514       1.50420830       0.10653464       0.00281930       0.00161067       0.01080787      -9.35139561
Ru       4.02351120       5.12094097      15.73371253  T       1.39061653      -0.65250631       1.17451539      -0.00004177       0.03400414       0.00579910      -9.33836842
Ru      13.24004555       0.66697699      12.92673206  F       0.00000000       0.00000000       0.00000000       0.03708108       0.20887844      -0.48277339      -8.51032162
Ru      -1.01260967       3.96429481      17.52728900  T       1.06190127       0.71664198       1.55130997      -0.00629732       0.02261846       0.01414931      -9.36776638
Ru       3.96229459       1.92370598      19.50526641  T      -0.23671107       1.10182925      -3.26145027       0.01671851       0.00813562       0.00988948      -7.94691181
Ru       8.60853301       3.37355146      18.05515359  T       2.43175291      -0.51978987      -0.45960218       0.02499338      -0.02053010      -0.01371226      -8.80748844
Ru       5.91283369       0.66715997      14.02861214  F       0.00000000       0.00000000       0.00000000      -0.25653547       0.29522803      -0.48359311      -8.53249073
Ru      10.64896924       1.75442039      18.76342840  T       1.92737857      -0.96978172      -3.64700868      -0.04442525       0.02727896       0.00998336      -8.42257881
Ru      -3.34437063       5.15843060      16.94222421  T       2.11603350       0.73462076       0.06694766      -0.02043682      -0.01308677       0.00401737      -9.42719650
Ru       1.23386668       2.84903793      18.90763653  T      -0.10634902      -0.06938720      -0.27878755       0.00471050       0.03579286      -0.00409348      -8.05434036
Ru       6.38265962       4.09348448      16.62265831  T       1.35515112       0.87631750      -0.97303652      -0.01532490       0.01936284       0.00281374      -9.40405369
Ru       5.72694067       6.79146911      16.78541382  T      -2.32705305       1.74132786      -1.21335437      -0.02185841       0.01987834      -0.02719548      -9.47363853
Ru      -3.88307307       7.78440454      16.96917678  T       0.71730530      -1.99562790       0.27442424       0.00914095      -0.02421477      -0.00758726      -9.36390781
Ru      -3.14924016      11.16210251      19.40262572  T       0.04411405       0.01019377      -0.39088260       0.03889869      -0.02722371       0.00151530      -8.48406601
Ru       1.20994973       9.05377865      14.78456879  F       0.00000000       0.00000000       0.00000000      -0.77895987       0.94112879      -1.13220394      -8.13369179
Ru       6.23028326      10.19742870      12.58045483  F       0.00000000       0.00000000       0.00000000       0.73628575       0.64784503       0.78473353      -7.32232904
Ru       6.02665806       8.48222733      14.78421593  F       0.00000000       0.00000000       0.00000000       0.95431542       0.26105076       0.31033996      -9.30906773
Ru      -3.60669374       9.62587833      14.78421593  F       0.00000000       0.00000000       0.00000000       0.16183110      -1.33171749       0.12144479      -8.24165154
Ru       0.89968721       7.44795101      16.92359007  T      -0.19761164       1.78391832       0.00174820      -0.00687647      -0.03807573      -0.01843184      -9.42741108
Ru       1.52561975      10.47636275      19.52768274  T       2.72547059       1.31536151      -1.12339678       0.00989276       0.02853620       0.01180394      -7.75925255
Ru      -4.20219640       6.12456421      19.45177135  T       0.93227148       0.14939542       2.61549783       0.02705681       0.01493515      -0.04194377      -8.89788818
Ru       8.33799025       7.35215578      15.77584299  T      -0.63711982       0.42652256       0.54485109      -0.00981561       0.01935852      -0.00123549      -9.40500832
Ru      -1.23866608       8.34743317      15.69622787  T      -1.20853008      -1.67680932      -3.18478041       0.01674889       0.01227701      -0.00356548      -9.23657990
Ru       3.72027812       6.40483906      18.39923783  T      -0.21213682       0.09110174       3.03773108       0.00313163      -0.00097017       0.02081235      -8.64691925
Ru       3.72051811       9.62569523      13.68233585  F       0.00000000       0.00000000       0.00000000      -0.24475478       0.81457025       0.46677700      -7.65614605
Ru      -5.80358638      10.89418919      20.41516111  T      -3.12547110       0.32720977      -1.56639794      -0.03450668      -0.01416291      -0.04328972      -7.91448784
Ru       4.21769905       6.95732975      13.43023300  F       0.00000000       0.00000000       0.00000000       0.18041642      -1.62193036       0.44551387      -7.53468561
Ru      -5.50487519       8.17146909      20.54395172  T      -2.29085955       0.31611656      -0.31834124       0.01503593       0.04137926      -0.00708158      -8.00574875
Ru      -1.06219315       5.69326651      15.41009210  T      -1.86940242      -0.69945581      -2.15276091       0.00898692      -0.01526364       0.00513203      -8.84539413
Ru      -0.78051838       9.59534363      18.41042656  T      -0.33196228       1.15803354      -0.61836299      -0.01853079       0.00880323       0.01024935      -8.94672012
Ru       4.69758655      10.42365292      16.21375204  T       0.80817695      -0.16390483      -0.40075752       0.01493182       0.00533244       0.02655247      -9.36329556
Ru      -0.17504490      10.85477607      16.25287387  T      -0.10713541      -2.09756040       0.19474561      -0.00035442       0.02790546       0.00703445      -9.33886242
Ru       9.03434277       6.38522959      13.43058491  F       0.00000000       0.00000000       0.00000000       0.07865332       0.13478306      -0.58356369      -8.50725746
Ru      -5.21567219       9.71056995      18.03512107  T      -1.07646976      -0.10746489      -1.23538633      -0.00458386       0.01729126       0.00136283      -9.38335228
Ru      -0.27402600       7.61826327      19.97267888  T       0.64024979       0.87081315      -2.96333130       0.04082221      -0.00178654      -0.00447804      -7.91589069
Ru       4.41115128       9.02493909      18.48292449  T      -0.76826734       0.33166563       0.43842212       0.01554674       0.01829183       0.01598399      -8.79014969
Ru       1.70713055       6.38541269      14.53246593  F       0.00000000       0.00000000       0.00000000      -0.35778472       0.25774068      -0.46412855      -8.54410076
Ru       6.51282315       7.51817709      19.25940815  T       3.35216354      -1.15798371      -3.12442207      -0.00242841       0.03462497       0.06542736      -7.74892664
Ru      -7.52147276      10.86902636      17.41430134  T       0.52683902       3.40569880       1.38708733      -0.02458705      -0.01519688       0.00509527      -9.41250515
Ru      -3.01978537       8.50922125      19.38771724  T       0.48684656      -0.96964500      -0.98896110       0.01911122       0.05263597      -0.00744314      -8.01680470
Ru       2.20416041       9.80886160      17.09303374  T      -0.19531923      -0.78607967      -1.64590625      -0.05711338       0.03675226       0.01350779      -9.40996361
N       12.53360800       1.47227702      19.30456689  T      -1.64267298       0.43552624      -1.43087189       0.06907643       0.03969539      -0.05461396      -9.12775898
H       12.83167396       1.67041642      20.26745729  T       0.81312437       0.96100429      -0.28198353      -0.01705136       0.04071204      -0.00309400      -3.82021475
