82
Lattice="14.653685569763184 -3.0000001167615996e-16 -2.204113721847534 -8.411406517028809 11.436505317687988 1.0077073574066162 -0.0 3.5000000656357872e-15 28.464778900146484" Properties=species:S:1:pos:R:3:move_mask:L:1:momenta:R:3:forces:R:3:energies:R:1 adsorbate_info="_JSON {\"site\": {\"coordinates\": [-1.1530700900000004, 6.28998661, 20.42072773], \"connectivity\": 2, \"topology\": [34, 73], \"n_vector\": [0.2626191580550585, -0.19835071760617948, 0.9442924179763205], \"h_vector\": [0.40650492818552075, 0.9089558789927422, 0.09248217885309579], \"site_formula\": {\"Ru\": 2}}, \"smiles\": \"S1S\", \"mdf\": 1.6841598878437392, \"adsorbate_formula\": \"HN\"}" bond_change_count=0 energy=-773.333984375 stress="0.0005574411479756236 -1.8099182852893136e-05 -9.20445891097188e-05 -1.8099182852893136e-05 0.0005770648131147027 -2.8100530471419916e-05 -9.20445891097188e-05 -2.8100530471419916e-05 9.69396423897706e-05" free_energy=-773.333984375 pbc="T T F"
Ta      10.72976685       0.09530421      14.02861214  F       0.00000000       0.00000000       0.00000000       0.07374059      -0.65183914      -1.81009579     -12.46625519
Ta       1.09641480       1.23895478      14.02861214  F       0.00000000       0.00000000       0.00000000      -1.24434185      -0.33058766       0.33599719     -11.44821358
Ta       1.28596081       4.79161771      16.50822026  T      -3.43926148       1.20721523       3.10262025       0.04257423       0.03169787      -0.00938401     -12.81861687
Ta       6.29122552       2.26240807      18.78321340  T      -2.45536070       0.51856444       1.34249642      -0.04142171       0.00099315       0.00167666     -11.53353024
Ta      11.24727556       3.62582903      17.22014973  T       0.24175648       0.70908692       2.57216901       0.02236688      -0.03081402       0.00754869     -12.18472862
Ta       7.67830664       2.22315257      15.04740511  T      -0.33916397       0.41444070       0.21388637      -0.00131840      -0.00397770      -0.00770962     -12.92144585
Ta      -2.22725270       3.26394229      14.96421666  T      -1.66236337      -1.67766708       0.02668063      -0.01441038      -0.00163302       0.00641251     -11.62545109
Ta       2.60678385       1.18208303      17.64824413  T      -0.26852311      -1.88847232       3.49854161       0.00408829      -0.01060928      -0.03369164     -12.84499550
Ta       3.10928845       4.47929811      13.17848206  F       0.00000000       0.00000000       0.00000000       0.28777307       0.55415750       1.43423378     -11.02974510
Ta       8.00765592       5.82727097      18.21554715  T      -1.61339588       2.97028059       4.52045124      -0.02450144       0.01630247      -0.00100136     -11.80100536
Ta       6.52406359       5.81355715      14.53246593  F       0.00000000       0.00000000       0.00000000       0.06190864      -0.64045000      -1.81706429     -12.47282696
Ta      -3.10928845       6.95720768      14.53246593  F       0.00000000       0.00000000       0.00000000      -1.27167273      -0.39067209       0.25022173     -11.44703865
Ta      -2.82366504      10.52353911      17.01102773  T      -0.78809837       2.00095377      -2.44764509       0.01306921      -0.00608134       0.02927575     -12.83644485
Ta       1.94124103       8.03490029      19.29151669  T      -3.62399985       1.43604848      -1.97547178      -0.02163649       0.01282160      -0.00616385     -11.62229538
Ta       7.02157651       9.35494215      17.70026019  T      -0.41591641       1.00437302       3.06307696      -0.02567279       0.02983140      -0.03544652     -12.18006992
Ta       3.46511603       7.93377441      15.54918756  T       2.74867600       0.00862450      -3.12579228       0.01547893       0.01044891      -0.00252473     -12.90856647
Ta      -6.43388880       8.99688625      15.47616814  T      -0.90555528      -1.02612263      -2.30472082      -0.01493335       0.00717315      -0.00294948     -11.65607929
Ta      -1.59723338       6.81182621      18.17214437  T       1.17096972       1.89253664       3.54177347       0.01212887       0.01593629      -0.03169036     -12.85183430
Ta      -1.09641480      10.19755077      13.68233585  F       0.00000000       0.00000000       0.00000000       0.29644084       0.56296521       1.42358732     -11.03728294
Ta       3.77107533      11.54283598      18.77012140  T      -0.34425752      -1.39796815       4.23958447      -0.03917092       0.08204544       0.03064013     -11.75974274
Ru       9.92093515       1.09262340      16.28976191  T      -0.86837848      -0.40215071      -0.90918828      -0.01110238       0.00943385       0.01248679      -9.45939350
Ru       0.28619999       2.09972576      16.46997125  T      -1.35079050      -1.18716870       2.89351383       0.01635905       0.01605067       0.02240717      -9.36095047
Ru       1.02277305       5.55241539      18.89325566  T       0.35674117       0.61870083       0.51333289       0.03110035       0.02621020      -0.00189079      -8.51872158
Ru       5.41565323       3.33552551      14.28071499  F       0.00000000       0.00000000       0.00000000      -0.81489611       0.89408851      -1.05950046      -8.15015316
Ru      10.43598652       4.47917604      12.07660198  F       0.00000000       0.00000000       0.00000000       0.74507976       0.62057889       0.74444973      -7.31365776
Ru      10.23236179       2.76397467      14.28036213  F       0.00000000       0.00000000       0.00000000       0.90522343       0.27289850       0.34221151      -9.31928539
Ru       0.59900963       3.90762520      14.28036213  F       0.00000000       0.00000000       0.00000000       0.23378886      -1.28374481       0.11251232      -8.23741531
Ru       5.10544754       1.69570056      16.41900810  T       0.00309074       1.78839033      -1.27794359      -0.00957015       0.01141824      -0.04289436      -9.43025780
Ru       5.79846768       4.75763102      19.06510055  T       1.90351559      -0.25813443       0.07893918       0.01735055       0.00757855      -0.00824573      -7.72590494
Ru       0.04619198       0.46006701      18.91772837  T      -0.14316269       2.02917112       0.85951981       0.02628860       0.02813636      -0.04041494      -8.91513538
Ru      12.53494519       1.63285740      15.26983304  T      -0.21491776      -0.35583877      -0.27499235      -0.01316300      -0.00233916       0.03530267      -9.40098381
Ru       2.97530294       2.60795053      15.16932569  T       0.01856590      -1.08901055      -2.55989344       0.01563647       0.03142799       0.02093283      -9.23644543
Ru       7.92724133       0.57577538      17.87279053  T      -1.62732633       0.85676098       2.52125979       0.02278158       0.02120607      -0.01508844      -8.59568977
Ru       7.92622137       3.90744233      13.17848206  F       0.00000000       0.00000000       0.00000000      -0.19434544       0.88067031       0.41068500      -7.70122433
Ru      -1.39748942       5.10734662      20.08987040  T       0.14195285       0.16248612      -1.39033606       0.02015746      -0.01962599       0.00150767      -9.17758560
Ru       8.42340183       1.23907673      12.92637920  F       0.00000000       0.00000000       0.00000000       0.18037067      -1.56876469       0.48030546      -7.51028919
Ru      -1.28849332       2.42537248      20.06784085  T      -0.61582562      -2.20933698       1.03731113      -0.01502639      -0.00677853      -0.01316616      -7.96630764
Ru       3.16489857      -0.01330585      14.89084525  T       1.07099600      -0.71820855      -1.18581807       0.00873588      -0.00924044       0.00957689      -8.84539604
Ru       3.48290781       3.94129329      17.92598829  T      -1.33131505       0.09216847       0.66238282      -0.00184365       0.02770002       0.01539687      -8.89663887
Ru       8.90222821       4.71194062      15.74040763  T       0.20640101       1.64650681       2.01866355      -0.00464754       0.02025314       0.01329726      -9.35078621
Ru       4.00249750       5.13240756      15.72800645  T      -1.23080226      -0.50473750       0.92719035      -0.00035957       0.01076982       0.01387858      -9.33619022
Ru      13.24004555       0.66697699      12.92673206  F       0.00000000       0.00000000       0.00000000       0.03897777       0.12381168      -0.59679240      -8.49718952
Ru      -1.05982150       4.02627774      17.59649792  T      -1.35057091       1.38445339      -0.43006018       0.01019485      -0.02196190      -0.01798916      -9.38319111
Ru       3.98809677       1.94695063      19.46297121  T       0.02649370      -1.61966692      -1.90993564      -0.00929469       0.00676876      -0.00389242      -7.97672033
Ru       8.61201825       3.25010278      17.95598376  T       1.82988655       0.73238599      -0.27928246       0.01081483       0.00718907       0.03346470      -8.80789852
Ru       5.91283369       0.66715997      14.02861214  F       0.00000000       0.00000000       0.00000000      -0.31013668       0.19961216      -0.41625890      -8.49788284
Ru      10.75698316       1.79849367      18.74958132  T       2.02888814       0.02040552      -3.53499865       0.04501224      -0.03014968      -0.07499927      -7.68937016
Ru      -3.34057894       5.16482015      16.89945758  T      -0.92691498      -0.05848276      -0.13295293      -0.03100199      -0.00453775      -0.00459519      -9.36857224
Ru       1.22348071       2.86863926      18.88702666  T       0.57074606       0.64271905       0.11445644      -0.01152506       0.02505371      -0.01049965      -8.03491116
Ru       6.36575715       4.11317013      16.61118443  T      -0.17005192       1.78981223      -0.14589397      -0.00945371       0.01164241      -0.00699656      -9.39132881
Ru       5.70222747       6.79755616      16.78148707  T      -0.46703980       0.64963458       0.19688309      -0.00729614       0.01073965      -0.00947955      -9.45846653
Ru      -3.86347730       7.78739598      16.97148680  T       2.25984386      -0.60835432       1.87695520      -0.00286029       0.00443414       0.02956936      -9.39047909
Ru      -3.12968280      11.19161671      19.40147179  T       1.53100851       1.24801001       0.81307720      -0.00872902      -0.01558647      -0.01470026      -8.46078300
Ru       1.20994973       9.05377865      14.78456879  F       0.00000000       0.00000000       0.00000000      -0.72996843       0.98070002      -1.17787075      -8.12711716
Ru       6.23028326      10.19742870      12.58045483  F       0.00000000       0.00000000       0.00000000       0.72086596       0.65902764       0.85262716      -7.33678150
Ru       6.02665806       8.48222733      14.78421593  F       0.00000000       0.00000000       0.00000000       0.94528246       0.32067105       0.32563162      -9.31233025
Ru      -3.60669374       9.62587833      14.78421593  F       0.00000000       0.00000000       0.00000000       0.22886850      -1.28683722       0.27071700      -8.21987152
Ru       0.89334963       7.40701061      16.90570998  T       0.13586320       0.88957333      -0.07770002       0.00596683      -0.00386081       0.03662024      -9.40437698
Ru       1.63845549      10.50380237      19.61401680  T       1.27794305       0.11122734      -0.73638661       0.00629735       0.03461620       0.00855846      -7.80220556
Ru      -4.04462360       6.11535911      19.39908594  T       0.40077163      -0.19351068       1.09625052      -0.01110129       0.00423910      -0.05086872      -8.84707546
Ru       8.35309946       7.34931630      15.76431067  T       1.52873701       0.45067696      -0.88226465      -0.01464815      -0.00086278       0.02612817      -9.40258026
Ru      -1.23131165       8.32194604      15.67270334  T       1.81914424       0.55671233       0.15279935      -0.00013611       0.01409762       0.01094650      -9.25541115
Ru       3.70406328       6.43892307      18.43008685  T       0.01848863      -1.55439632       1.82118169      -0.00431657       0.03598349       0.01545507      -8.56421375
Ru       3.72051811       9.62569523      13.68233585  F       0.00000000       0.00000000       0.00000000      -0.17387235       0.86549866       0.42712584      -7.70117092
Ru      -5.81144959      10.90027668      20.36072997  T      -1.92775940      -1.95437463      -1.73753485       0.03377128       0.05032440       0.04082909      -7.96276760
Ru       4.21769905       6.95732975      13.43023300  F       0.00000000       0.00000000       0.00000000       0.20102163      -1.59684801       0.53473413      -7.52789974
Ru      -5.48042674       8.15820624      20.44896130  T      -1.13040795      -0.32601828       0.62795854       0.03681684      -0.02038291      -0.01883264      -7.95167398
Ru      -1.05090731       5.68742115      15.43454990  T      -0.91941594      -0.38864988      -1.13327166       0.00748336       0.00075422      -0.01295550      -8.85663986
Ru      -0.57090748       9.41571437      18.31371820  T      -1.49372638      -0.00126399       1.35117543      -0.00096672       0.00573387       0.02886418      -9.07341957
Ru       4.69037507      10.43068623      16.25189462  T       0.69510082      -0.18158488       1.34575715       0.01683459       0.01882421       0.00912949      -9.34876919
Ru      -0.18215332      10.86587183      16.22852477  T       1.10479782      -1.58210890       2.52716540      -0.01222947       0.03125291       0.03053865      -9.36112690
Ru       9.03434277       6.38522959      13.43058491  F       0.00000000       0.00000000       0.00000000       0.05675612       0.18506360      -0.61759865      -8.48179722
Ru      -5.20998355       9.73145405      17.98778695  T       1.13547804      -1.37576180      -1.81902152       0.00784831      -0.01320558      -0.00455865      -9.37994671
Ru      -0.43317330       7.54050677      20.18226252  T       2.70785819      -0.98145367      -3.46899831       0.00647841       0.01363525       0.02572992      -8.96146965
Ru       4.41139810       9.01744253      18.50747207  T      -0.22180824       0.00569723       1.64250172       0.00880193      -0.00026135      -0.00084005      -8.74556923
Ru       1.70713055       6.38541269      14.53246593  F       0.00000000       0.00000000       0.00000000      -0.34391773       0.13044749      -0.48040283      -8.50393963
Ru       6.56726331       7.48722866      19.20404908  T       2.98994289       0.40244593      -2.57779711       0.02187204      -0.01690437       0.01654077      -7.73790836
Ru      -7.54286916      10.91323804      17.42774467  T       1.31610949       1.16066525      -0.35117153      -0.01651686      -0.02102651       0.00165761      -9.42528820
Ru      -2.94452783       8.58038785      19.36902820  T       1.58137837      -0.45962317       0.38792688       0.00683270       0.03580487       0.00066657      -8.02414894
Ru       2.15650261       9.82059485      17.11793309  T       1.50315224       0.38909181      -1.26430352       0.00465240       0.00903554      -0.00897552      -9.45235252
N       -0.90684747       6.26687860      21.52858242  T      -2.23731730       0.43939229      -0.02863741      -0.00176008       0.00423674      -0.06329346      -8.07030106
H       -0.80575759       6.18811905      22.55282368  T       0.53705973      -0.39937106      -0.14612472      -0.01012746      -0.00240844       0.05124408      -3.64378285
