82
Lattice="14.653685569763184 -3.0000001167615996e-16 -2.204113721847534 -8.411406517028809 11.436505317687988 1.0077073574066162 -0.0 3.5000000656357872e-15 28.464778900146484" Properties=species:S:1:pos:R:3:move_mask:L:1:momenta:R:3:forces:R:3:energies:R:1 adsorbate_info="_JSON {\"site\": {\"coordinates\": [-3.40306878, 11.34107971, 19.69664955], \"connectivity\": 1, \"topology\": [52], \"n_vector\": [0.5002725548949554, 0.06215160936867167, 0.8636344992366608], \"h_vector\": [1.0, 0.0, 0.0], \"site_formula\": {\"Ru\": 1}}, \"smiles\": \"Cl\", \"mdf\": 1.739228786988773, \"adsorbate_formula\": \"HN\"}" bond_change_count=0 energy=-773.9725341796875 stress="0.0005300804041326046 -8.300859917653725e-06 -8.410820737481117e-05 -8.300859917653725e-06 0.0006023600581102073 -2.0546882296912372e-05 -8.410820737481117e-05 -2.0546882296912372e-05 0.00010106911940965801" free_energy=-773.9725341796875 pbc="T T F"
Ta      10.72976685       0.09530421      14.02861214  F       0.00000000       0.00000000       0.00000000       0.04686130      -0.58832037      -1.83078110     -12.47660637
Ta       1.09641480       1.23895478      14.02861214  F       0.00000000       0.00000000       0.00000000      -1.26660848      -0.34614497       0.34072921     -11.45156670
Ta       1.35758951       4.79383395      16.51587622  T      -1.79330813       0.40609076       3.35254722       0.00945529      -0.01845872       0.00354844     -12.84038353
Ta       6.19265417       2.30726417      18.83138843  T      -1.42466465      -2.68032287       0.08543793      -0.00495127       0.00679246       0.00422589     -12.16153717
Ta      11.18154958       3.67025808      17.22618538  T      -1.29224285       1.18050662       4.29270122      -0.02608037      -0.01826083      -0.00920558     -12.16215992
Ta       7.67973293       2.23959547      15.04785623  T      -0.71653884       2.76330167      -5.45980696      -0.03569072       0.00932004      -0.00893545     -12.93134403
Ta      -2.22277546       3.27297165      14.99169413  T      -1.56383860       0.07275686      -3.40211058      -0.00382674       0.01832569      -0.02037907     -11.68247700
Ta       2.75020051       1.01839674      17.61363741  T      -0.50687787       1.49484285       5.88583072       0.02245644       0.02205516      -0.02466440     -12.88597202
Ta       3.10928845       4.47929811      13.17848206  F       0.00000000       0.00000000       0.00000000       0.24277014       0.56554729       1.36073577     -11.03761292
Ta       7.95350843       5.77972307      18.26554816  T      -0.94847887       2.90930686       1.94174423      -0.03031290       0.02729148       0.02323288     -11.78879738
Ta       6.52406359       5.81355715      14.53246593  F       0.00000000       0.00000000       0.00000000       0.02964888      -0.55068815      -1.87690568     -12.47987556
Ta      -3.10928845       6.95720768      14.53246593  F       0.00000000       0.00000000       0.00000000      -1.23851013      -0.37958565       0.31479615     -11.45541573
Ta      -2.90061929      10.53347142      17.02416404  T       3.14960642      -1.79569001      -0.36205161       0.04459059       0.00124162       0.04473281     -12.84079170
Ta       2.03794598       7.99364391      19.34623689  T      -3.39212723      -1.22611404       0.73027488      -0.03142929      -0.00578447      -0.00561464     -11.51429939
Ta       6.94679834       9.34319061      17.69216042  T      -0.28137887      -0.44632166       4.00718599      -0.01780069      -0.03068982      -0.03559136     -12.22264481
Ta       3.46503314       7.93657903      15.54624787  T       2.24625157       0.93128644      -3.62086228       0.00393277       0.01539904      -0.00319564     -12.92798901
Ta      -6.44285355       8.97615042      15.48944324  T      -0.12228159       0.49302337      -3.11791871       0.01081920       0.03313643      -0.01328844     -11.64056206
Ta      -1.57643553       6.85202140      18.14224781  T       0.80457591      -0.71532237       0.16183079       0.01470309       0.01854540       0.00400150     -12.88390446
Ta      -1.09641480      10.19755077      13.68233585  F       0.00000000       0.00000000       0.00000000       0.17351162       0.57705301       1.26899123     -11.04345131
Ta       3.71850316      11.49477954      18.76417338  T      -0.94196873       2.24002502       4.94515438      -0.02905214       0.02804714       0.00514698     -11.79072094
Ru       9.90902308       1.08904771      16.28201672  T      -0.53022292      -0.37831331      -0.76061079      -0.00462241      -0.00955123       0.00708658      -9.48804092
Ru       0.34689815       2.07772594      16.47841801  T      -1.54739367       0.22338542       0.98926848      -0.00444143       0.01110630       0.02575745      -9.33410645
Ru       1.02884676       5.41189714      18.93060883  T      -0.42942731      -1.68196242      -1.10202653      -0.01980747      -0.01718530      -0.01755181      -8.40707207
Ru       5.41565323       3.33552551      14.28071499  F       0.00000000       0.00000000       0.00000000      -0.78362769       0.79561239      -1.04164982      -8.13947868
Ru      10.43598652       4.47917604      12.07660198  F       0.00000000       0.00000000       0.00000000       0.80350488       0.64407986       0.90275294      -7.30942249
Ru      10.23236179       2.76397467      14.28036213  F       0.00000000       0.00000000       0.00000000       0.87555879       0.39441314       0.29440778      -9.31942844
Ru       0.59900963       3.90762520      14.28036213  F       0.00000000       0.00000000       0.00000000       0.32175696      -1.32363677       0.29299515      -8.23061657
Ru       5.13045647       1.67632557      16.47816885  T      -1.85265116       1.27987893       0.92783412      -0.01614610      -0.00974140       0.01061766      -9.53596306
Ru       5.74335591       4.75521329      19.08681528  T       0.45661072      -0.17716426      -1.21844903      -0.01780456       0.00174174       0.01583773      -7.78938007
Ru      -0.04593036       0.50775135      18.90313537  T       0.23728509       2.35400078       0.90643826       0.02087438       0.01532357      -0.03399995      -8.87907219
Ru      12.52507860       1.66512994      15.26066816  T       0.72053470      -0.26982778      -0.23248567      -0.01075190      -0.01232999       0.00195652      -9.39500046
Ru       2.99122567       2.58892388      15.15729105  T       1.02336597      -1.11988704      -1.64839069      -0.00884759       0.02024756       0.00090002      -9.25400352
Ru       7.74313131       0.62530471      17.69818393  T       1.09484274      -0.08733849       2.22444180       0.03135651       0.02172862      -0.01244115      -8.59372997
Ru       7.92622137       3.90744233      13.17848206  F       0.00000000       0.00000000       0.00000000      -0.15963212       0.89485520       0.35864404      -7.71648121
Ru      -1.65752067       5.20674028      19.91386203  T       0.12211662       1.33050219      -2.40658831       0.03653520       0.03696789      -0.00213224      -7.98445415
Ru       8.42340183       1.23907673      12.92637920  F       0.00000000       0.00000000       0.00000000       0.20685793      -1.49694598       0.43239996      -7.48090792
Ru      -1.34529268       2.49375832      20.01072092  T       0.19645570      -0.54057861      -0.09248788       0.01831472      -0.03466174      -0.00744758      -7.96061754
Ru       3.14996606      -0.04658054      14.91423538  T      -1.64728580       2.38648460      -2.27648696       0.01573518      -0.02117915       0.00190537      -8.84613132
Ru       3.56667970       3.70119079      17.78313890  T      -1.20842662      -1.23282948       0.34114766       0.01440843       0.02978480      -0.01445723      -9.10522842
Ru       8.90436598       4.74313809      15.74176398  T       0.44905065       1.13000666       0.06902001      -0.01784351       0.00192299       0.02089798      -9.35789585
Ru       3.99947062       5.14619608      15.71249125  T      -0.36670446      -0.48595812       1.97112258       0.01521659       0.00094336       0.01359679      -9.37069702
Ru      13.24004555       0.66697699      12.92673206  F       0.00000000       0.00000000       0.00000000       0.15921144       0.26488292      -0.52521127      -8.49920082
Ru      -1.00075535       4.01742659      17.53575422  T      -1.00752130       0.09724567      -0.65978079      -0.02393479      -0.03483170      -0.02863443      -9.39184380
Ru       3.81379089       1.90031263      19.60376489  T       2.60140083       1.10972390      -4.49833430       0.01848370      -0.01767859      -0.00674492      -8.23797131
Ru       8.59403367       3.21845942      17.93172926  T       0.50856026       1.76496336       1.21544334       0.01882476       0.03965123       0.00831270      -8.76649666
Ru       5.91283369       0.66715997      14.02861214  F       0.00000000       0.00000000       0.00000000      -0.47503766       0.19832033      -0.28557268      -8.48373318
Ru      10.75020563       1.76545691      18.71410498  T       1.85602779      -1.52661444      -4.84092033       0.00246263      -0.02459114      -0.02300465      -7.66126108
Ru      -3.33480836       5.18884524      16.93462898  T       0.03243539      -0.20670265       2.82029284       0.00441648      -0.02354359      -0.01397993      -9.43293762
Ru       1.24327508       2.78723847      18.89939689  T       1.13291394      -0.18828517       0.05247972       0.01856332       0.02565841      -0.03553079      -8.08502960
Ru       6.35715608       4.14456097      16.60040666  T      -1.15900201      -0.73174269      -1.61925748      -0.02024003      -0.02760541      -0.02707566      -9.44538593
Ru       5.68711733       6.79911950      16.79524315  T      -0.13118435       0.41045547       0.49354372       0.00088418      -0.00149230       0.00385222      -9.45436573
Ru      -3.89908316       7.81648158      16.96111519  T       0.27775146       0.01562066      -1.30452260       0.01935674       0.01904491       0.02940779      -9.38374138
Ru      -3.29788734      11.24514911      19.60831998  T       1.87195889      -0.24952711      -3.79732098       0.03456626      -0.05895442      -0.05810237      -8.88360691
Ru       1.20994973       9.05377865      14.78456879  F       0.00000000       0.00000000       0.00000000      -0.70137501       0.80412823      -1.12178218      -8.13891792
Ru       6.23028326      10.19742870      12.58045483  F       0.00000000       0.00000000       0.00000000       0.77684879       0.64297861       0.87250328      -7.33521938
Ru       6.02665806       8.48222733      14.78421593  F       0.00000000       0.00000000       0.00000000       0.85317755       0.32930008       0.37264055      -9.33120728
Ru      -3.60669374       9.62587833      14.78421593  F       0.00000000       0.00000000       0.00000000       0.35563338      -1.24746418       0.26303035      -8.22670078
Ru       0.91439643       7.39780834      16.93666013  T       1.18484431       1.71508136      -1.35810306      -0.00822318       0.01200240      -0.01092679      -9.47037125
Ru       1.46338167      10.49446781      19.54571315  T       0.35052814      -1.89199379      -0.31257953       0.01669520       0.00874108      -0.03343891      -7.66921854
Ru      -4.18375876       6.22970383      19.44301624  T      -0.77800707      -1.16863265       0.00699589      -0.00352667       0.01331018      -0.03081244      -8.88912010
Ru       8.32899806       7.35518201      15.77716461  T       1.04441166       0.36357681       0.50621084      -0.01363004       0.00417074       0.02846169      -9.39518356
Ru      -1.21414949       8.31870749      15.66249262  T       0.35985965      -2.19212183      -1.50011563      -0.01241931       0.03345380       0.00769770      -9.24647713
Ru       3.63688588       6.30165833      18.34674593  T      -1.33164722      -1.24169135       2.78432397       0.02090618       0.00204225      -0.01234530      -8.62181282
Ru       3.72051811       9.62569523      13.68233585  F       0.00000000       0.00000000       0.00000000      -0.18657553       0.85112882       0.34753957      -7.68400860
Ru      -5.99258824      10.93471390      20.46586562  T      -1.34520566       1.27583961      -3.77487592       0.03028393       0.02427046       0.00158200      -8.09037781
Ru       4.21769905       6.95732975      13.43023300  F       0.00000000       0.00000000       0.00000000       0.20856343      -1.55453777       0.43707892      -7.50591755
Ru      -5.56664322       8.20022289      20.53459191  T      -0.06024637      -0.12580733      -0.84339646      -0.00077111      -0.01335011      -0.01093619      -7.91228008
Ru      -1.04307563       5.69358183      15.41374578  T      -1.79215577       0.29353770      -0.75516514       0.01461786      -0.00704522      -0.01075316      -8.84355450
Ru      -0.71186860       9.49073396      18.28456032  T      -0.66059793      -0.47777584       0.91381822      -0.01088616       0.07616995       0.01350337      -8.98720551
Ru       4.64521645      10.45727258      16.23242060  T       1.72671085       1.81093909       2.26680020       0.00668075       0.00043245       0.01265419      -9.36616421
Ru      -0.19886205      10.86505081      16.19030759  T       0.09113911      -2.25031288       0.99790126      -0.00308354       0.00158679       0.03730257      -9.39673519
Ru       9.03434277       6.38522959      13.43058491  F       0.00000000       0.00000000       0.00000000       0.09161936       0.14499085      -0.61712676      -8.49338913
Ru      -5.23073262       9.72705130      18.10139898  T      -1.06820597       0.15911388      -0.76001852       0.01078310      -0.00907011       0.01287705      -9.40296364
Ru      -0.24527629       7.63826620      20.00362050  T       1.62187467       0.34738938      -5.39016446      -0.01516914       0.00375646       0.00342000      -7.92448092
Ru       4.35999861       8.92433279      18.43660824  T       3.19437278       0.56909830       4.04867718       0.01887611       0.01527928       0.02554503      -8.78003311
Ru       1.70713055       6.38541269      14.53246593  F       0.00000000       0.00000000       0.00000000      -0.40960053       0.17708020      -0.40736330      -8.47104549
Ru       6.53567759       7.47382652      19.22255617  T       2.83505266      -0.02237125      -2.82628956       0.02005219      -0.01675585      -0.01277125      -7.68341398
Ru      -7.56064679      10.90104140      17.43542474  T       0.42650692       0.01766890       0.62714192       0.01126012      -0.03582953      -0.00477651      -9.41466331
Ru      -2.97781770       8.59914077      19.38905284  T       1.94879644      -0.03654069      -0.62269630      -0.03465991       0.02486953       0.00245798      -7.97487068
Ru       2.13191774       9.82403966      17.12130420  T      -1.71940255      -1.23656295      -0.36608281      -0.00455375       0.01260751      -0.00818304      -9.40490055
N       -2.95498177      12.40396897      21.21607961  T      -1.21291422       2.23763304       1.96922789      -0.00691456       0.08584359      -0.04228941      -9.11850834
H       -2.91590722      11.96958919      22.14285849  T       0.53908783      -0.03623763       0.03490170      -0.01324645      -0.07126954       0.05584049      -3.75169826
