75
Lattice="15.477487564086914 0.0 0.5151416063308716 3.713155508041382 10.794244766235352 0.5151416063308716 0.0 0.0 29.30695915222168" Properties=species:S:1:pos:R:3:move_mask:L:1:momenta:R:3:forces:R:3:energies:R:1 adsorbate_info="_JSON {\"site\": {\"coordinates\": [15.42790604, 4.96280718, 14.50471592], \"connectivity\": 1, \"topology\": [44], \"n_vector\": [-0.4586797394524706, 0.6318340510819956, 0.6248188765627427], \"h_vector\": [1.0, 0.0, 0.0], \"site_formula\": {\"Ti\": 1}}, \"smiles\": \"Cl\", \"mdf\": 1.3919530772784168, \"adsorbate_formula\": \"C2H6N2O\"}" bond_change_count=0 energy=-493.289794921875 stress="0.007687818259000778 0.0006249483558349311 0.00031779060373082757 0.0006249483558349311 0.009160044603049755 0.0005932681960985065 0.00031779060373082757 0.0005932681960985065 0.0015429056948050857" free_energy=-493.289794921875 pbc="T T T"
Bi       9.22644260       7.42070487      15.03075362  T      -0.30411258       0.54973919      -1.17739819       0.00975769       0.01672825       0.00474548      -6.50873852
Bi       0.82545853       0.05622002      12.69866753  F       0.00000000       0.00000000       0.00000000       0.00547723      -0.04013698      -0.93676782      -5.46407557
Bi       2.98351467       0.55290966      18.18985916  T      -2.52137470      -0.26824970      -1.46118744       0.02098461       0.01471914       0.00762994      -4.82894325
Bi       6.17906825       4.06214516      16.81537429  T       0.96892502      -2.63244864      -0.61748476      -0.03625265      -0.02979799       0.00221300      -5.67016983
Bi       2.25214403       3.36226604      14.97540286  T       0.71746964      -0.64281134      -2.84163689      -0.02622250      -0.02367900       0.02644934      -6.50177765
Bi       5.36463547       6.69018269      13.39567089  F       0.00000000       0.00000000       0.00000000       0.03353452       0.09284424      -1.36283100      -5.85987759
Bi       8.45968246      10.06338406      11.78936005  F       0.00000000       0.00000000       0.00000000       0.00085011      -0.06716694      -0.12492903      -4.91347122
Bi      10.63276795      10.56263312      17.54379246  T      -0.56544213      -0.30039895      -0.78221917       0.01494651       0.01672413      -0.00246659      -5.25642252
Ti       9.00888758       5.28082844      16.90568114  T       0.77282656      -0.40958246       0.11906197      -0.02129845       0.01842284       0.01074818      -6.63062286
Ti       4.11792324       8.64367073      15.22420127  T      -0.27171737       0.60615763       0.04355017      -0.02905644      -0.01538733       0.01646087      -7.44199657
Ti       3.56686091       1.26976061      13.20247269  F       0.00000000       0.00000000       0.00000000       0.29851234       0.11496767       0.12657230      -7.05593014
Ti       6.66190815       4.64296198      11.59616184  F       0.00000000       0.00000000       0.00000000       0.40850037      -0.32578871       0.91502666      -6.18840551
Ti       7.65636132       4.86001882      14.10958369  T       0.83131162      -0.39361979      -0.23676981      -0.02469550       0.02251181       0.00629091      -7.21108532
Ti       3.04546547       8.33600903      12.38326454  F       0.00000000       0.00000000       0.00000000      -0.22771133       0.07435410       0.76561737      -6.40601873
Ti       5.25277332       8.82871470      17.58200047  T       1.35085156       0.12735680      -0.58246006      -0.00321949       0.01991053       0.00475439      -6.77355766
Ti       4.61775753       1.47796728      15.76751659  T       0.69840820      -1.01480062      -0.79811660       0.02174572       0.00520314      -0.00561896      -7.39820385
Ti       6.44969389       7.00660417      16.13060334  T       0.31459532       1.63116377       1.83331840      -0.01311401       0.03115693      -0.02638495      -7.09940147
Ti       9.52089769      10.41335587      14.60205699  T       0.29136335       1.49577032      -0.34394266      -0.00905433       0.00553882      -0.00088420      -7.47747374
Ti       1.12472832       3.04373622      12.22225189  F       0.00000000       0.00000000       0.00000000      -0.50639415       0.43508422       0.32195467      -6.51668930
Ti       3.24948933       3.74920209      17.79419707  T       2.18511812      -0.78927182       1.47005783       0.05959868       0.00294372       0.00529248      -7.81492233
Ti       2.62323332       5.47664213      12.89186573  F       0.00000000       0.00000000       0.00000000      -0.35324734      -0.04439716      -0.12306643      -6.35869122
Ti       4.63806884       6.24252724      18.17831553  T       0.63425569      -0.21578492      -0.33473361       0.01245692       0.04035396      -0.02282217      -6.48582506
Ti       7.95578689       9.42547323      16.80786582  T       0.27546092       0.79730992      -0.74416826      -0.01998679       0.01181364      -0.01328226      -7.09006500
Ti       7.22441076       2.08493839      14.70913138  T      -0.30983551      -0.67485484      -1.39348615       0.00499091       0.00361542      -0.00069606      -7.32446623
Ti       3.73597993       5.81490914      15.78737397  T       2.81131251       0.50350069      -1.33346079       0.00490808       0.00783674       0.03097415      -7.33156586
Ti       6.85597074       9.28772144      14.33755553  T       0.43596613       0.01780513       0.90221307      -0.00684113      -0.02051237       0.00525442      -7.36816025
Ti       6.23967600       1.78359568      12.10476303  F       0.00000000       0.00000000       0.00000000       0.04790036       0.59207296       0.79236984      -6.79858589
Ti       8.45060924       2.30967150      17.29289292  T      -2.05575891       0.21771661      -0.09272366       0.00620225      -0.00349161      -0.01557770      -6.71545935
Ti       5.06536579       3.70266676      13.87208557  F       0.00000000       0.00000000       0.00000000       0.23505068      -0.39446241      -0.26827767      -7.05778503
Ti       8.16041279       7.07586813      12.26577568  F       0.00000000       0.00000000       0.00000000       0.15416346      -0.52932465       0.58180076      -6.32793570
Ti      10.88715333       7.05654377      17.90025238  T      -0.63283323      -0.85235460       0.83239941       0.02828772      -0.01940474       0.00632295      -6.56135178
Ti       1.92708448       0.35813585      15.44539729  T       0.65970822      -1.37399493      -0.48987889       0.00373992      -0.00511268       0.00606109      -7.57830191
Bi      16.91202749       7.41025457      15.23816169  T       0.89127208      -0.37132372      -2.41119937       0.05532415      -0.01564876       0.02045171      -6.58722591
Bi       8.56420231       0.05622002      12.95623875  F       0.00000000       0.00000000       0.00000000       0.02194071      -0.18408540      -1.00731254      -5.46086121
Bi      10.68741797       0.75357847      18.42382279  T       0.06433707      -0.85465600      -1.05360423      -0.02224712       0.00466035       0.01845114      -4.84365845
Bi      13.80043734       3.75918151      17.10645490  T     -26.10968545      -1.46763613      -4.24705019      -0.06584015      -0.02337030       0.00828069      -5.78215599
Bi      10.08596269       3.30729644      15.12743149  T      -0.73091105      -0.86331072       0.24567418      -0.01137106      -0.05605602      -0.02758647      -6.59705639
Bi      13.10337925       6.69018269      13.65324116  F       0.00000000       0.00000000       0.00000000       0.20182134       0.38973740      -3.26069212      -5.63138103
Bi      16.19842720      10.06338406      12.04693127  F       0.00000000       0.00000000       0.00000000       0.00909854      -0.06746232      -0.12429054      -4.90750170
Bi      18.33969004      10.68596476      17.77048468  T      -1.30691849      -0.17070303      -2.24146728      -0.03005877      -0.01116111      -0.00645277      -5.34760523
Ti      16.23480262       5.25231479      17.51133828  T      22.30278093      12.88666945      10.07357052      -0.02409625       0.03152335      -0.00781858      -7.58152866
Ti      11.89353841       8.53283218      15.50734437  T       0.59154991      -1.28766672       0.04630564       0.01469454       0.00895166       0.00364126      -7.59306335
Ti      11.30560493       1.26976061      13.46004295  F       0.00000000       0.00000000       0.00000000       0.32228622      -0.01884960      -0.01265424      -7.09662151
Ti      14.40065193       4.64296198      11.85373306  F       0.00000000       0.00000000       0.00000000       0.23961763      -0.02420736       1.17007887      -6.46280766
Ti      15.37024405       4.89453012      14.46209903  T       4.88753849      -2.59365897      -8.98680186      -0.00033998      -0.02041674      -0.00859737      -7.66353893
Ti      10.78420925       8.33600903      12.64083481  F       0.00000000       0.00000000       0.00000000      -0.46463460       0.14049610       0.81303227      -6.43070841
Ti      13.11345860       8.79192998      17.85116804  T       0.19115364      -1.24990384      -0.18236424       0.00493234       0.02094970       0.02552736      -6.92407036
Ti      12.35375213       1.60010596      16.03549979  T       1.26164488       0.60310732      -0.09091560       0.02267897      -0.00016429      -0.01830325      -7.53569746
Ti      14.21610341       6.83726083      16.25382009  T       0.60944378      -0.73908473      -1.78157321      -0.02601254      -0.04894831       0.00689821      -7.61585331
Ti      17.23625852      10.45507658      14.86893827  T      -0.95222228       0.08563696      -0.41011208      -0.00944014       0.00601362       0.01010546      -7.49466324
Ti       8.86347198       3.04373622      12.47982311  F       0.00000000       0.00000000       0.00000000      -0.55275601       0.36087087      -0.09293620      -6.33562279
Ti      11.11570074       4.06565494      17.97189336  T       1.35086187      -0.28752625      -1.13458310      -0.00538275       0.00727278       0.00295676      -6.76013136
Ti      10.36197758       5.47664213      13.14943600  F       0.00000000       0.00000000       0.00000000       0.17424043       0.02485371       0.10989010      -6.54846764
Ti      13.40622822       6.01120309      18.56791723  T       0.04050724      -2.15617260       0.06074971      -0.06239092      -0.03550622      -0.01502979      -7.14921665
Ti      15.62194258       9.47447167      17.02373856  T      -1.75362641      -0.84669917      -0.50952956      -0.01123053       0.01853582       0.01317109      -7.10970879
Ti      14.97401347       2.12263689      15.02857013  T      -1.21759638       0.01062060       0.41828355      -0.00062871      -0.00640032       0.00011764      -7.59290504
Ti      11.74196080       5.61193684      15.96698968  T       1.09043169       0.61552902      -0.06801399      -0.02249473      -0.00864702       0.00062925      -7.61811543
Ti      14.56792581       9.18236689      14.53653745  T      -0.50698408       0.10090317       0.10922047      -0.01283870       0.02287945       0.01136410      -7.44300175
Ti      13.97841930       1.78359568      12.36233425  F       0.00000000       0.00000000       0.00000000       0.17306849       0.42792198       0.68813139      -6.88904762
Ti      16.15645659       2.39323860      17.83677942  T      -2.18802529     -12.62151432      -2.20535430      -0.00660583       0.02391744       0.04733419      -7.84680176
Ti      12.93292970       3.69588631      14.09962170  T       1.82707129       0.20152122       0.67705393       0.05987009      -0.00383258      -0.00610851      -7.49496460
Ti      15.89915657       7.07586813      12.52334595  F       0.00000000       0.00000000       0.00000000      -0.08225703      -0.73747891       0.87300420      -6.55471325
Ti      18.03546528       7.74544476      17.89136802  T       0.97302539       2.11981806      -0.26204970      -0.00959280      -0.01194534      -0.01225251      -6.67193508
Ti       9.64281871       0.32204713      15.67044190  T       0.19958816      -0.15260737      -0.19740460      -0.00652739      -0.01731779      -0.01204219      -7.46696568
O       13.57785294       5.17003256      15.30722191  T     -21.67091462       4.85260474      -9.36856257       0.01659682       0.03213604      -0.00544685      -7.08522367
N       17.03338526       3.93200403      18.85717832  T      10.26386865       0.73233186      11.57901865       0.04003823      -0.01852286       0.04756965      -7.99987459
N       15.80852694       4.01323040      19.29261411  T       1.62799561      -0.74200624       0.89676897       0.01623285      -0.02487695      -0.06297886      -8.32966423
C       15.38852174       5.37456534      19.55756108  T      -1.63172958       1.27757958       2.91743075      -0.01656189       0.02124631       0.02080336      -8.73472786
C       15.50834546       3.02208095      20.31702175  T       0.35468004       0.30539668       3.36416852      -0.00791749       0.00281805      -0.00151762      -9.69613647
H       19.37660850       4.84445482      19.65272480  T       0.27741063      -0.78883701       0.52456188      -0.01410448      -0.02046512       0.02241659      -3.98341322
H       14.48623192       5.38919844      20.20554217  T      -0.21380030      -0.04310472       0.37741898       0.03077108      -0.01457477      -0.01565449      -4.02795029
H       16.20303490       5.94458112      19.98352307  T       0.19919133      -0.06571758       0.04743613      -0.01916668      -0.04839778       0.01544634      -3.79268146
H       14.45102204       3.10329573      20.57946972  T      -0.01624992      -0.00284501       0.07794878      -0.01251420      -0.08600111       0.00205677      -3.45293832
H       15.74611928       2.01824804      19.90792565  T       0.03663557       0.00986706      -0.03428908       0.00367272       0.00882998       0.00456873      -3.70042706
H       16.11098165       3.21019611      21.22211134  T       0.13994984      -0.27252262       0.24730938      -0.00438896      -0.05741715       0.02881372      -3.43315864
