82
Lattice="15.482664108276367 0.0 9.000000350284799e-16 -3.941528797149658 14.972549438476562 -3.978878974914551 0.0 0.0 31.831031799316406" Properties=species:S:1:pos:R:3:move_mask:L:1:momenta:R:3:forces:R:3:energies:R:1 adsorbate_info="_JSON {\"site\": {\"coordinates\": [6.3740356585748295, 0.647769925761721, 18.203372002457275], \"connectivity\": 2, \"topology\": [61, 65], \"n_vector\": [0.5676919661721518, 0.34814799604117647, 0.7460018796196893], \"h_vector\": [0.5482565143726225, 0.6328336974590025, -0.546750679751155], \"site_formula\": {\"Y\": 2}}, \"smiles\": \"S1S\", \"mdf\": 1.9492511522122606, \"adsorbate_formula\": \"HN\"}" bond_change_count=0 energy=-534.7640991210938 stress="0.0002953325165435672 5.866361789230723e-06 -4.085624368599383e-06 5.866361789230723e-06 0.00026616110699251294 -5.928090831730515e-05 -4.085624368599383e-06 -5.928090831730515e-05 6.023158857715316e-05" free_energy=-534.7640991210938 pbc="T T F"
Co       2.34004882       8.43308006      12.91857196  T       1.32782435      -0.34105802      -1.49234664       0.00062692       0.00108961       0.01324528      -6.57957172
Co      12.13214381       0.99940980      13.09840483  T       0.19784170      -0.19810345       1.02410903      -0.00801882      -0.01983891      -0.01874748      -5.66196394
Co       9.69658852      11.82328224      11.24033356  F       0.00000000       0.00000000       0.00000000       0.12158630       0.12558404      -1.03511548      -6.44685173
Co       3.92602110       4.33700800      11.24033356  F       0.00000000       0.00000000       0.00000000      -0.07734251      -0.44861972       0.02694640      -5.54340744
Co      11.70440102      10.55078983      11.24033356  F       0.00000000       0.00000000       0.00000000      -0.07327229       0.34109914      -0.48743060      -5.68184185
Co       5.93383265       3.06451464      11.24033356  F       0.00000000       0.00000000       0.00000000      -0.16877802       0.49221295       0.29755950      -4.98172951
Co      11.01783297       4.84123124      12.87400140  T       0.13332861      -1.56807106      -2.13511319      -0.01006863      -0.00961225      -0.03322059      -6.65348911
Co       1.22387576      12.38704586       9.25089359  F       0.00000000       0.00000000       0.00000000       0.17250940       0.58959973       0.33441496      -5.01493597
Co      -0.16326515       4.42176008      11.24033356  F       0.00000000       0.00000000       0.00000000       0.15950495      -0.17938165       0.33824325      -5.25435543
Co       5.60730267      11.90803528      11.24033356  F       0.00000000       0.00000000       0.00000000       0.17364971       0.40770906      -0.90737408      -6.24838161
Co       0.49626897      10.00265493      13.00633333  T       0.15665787      -1.30246210      -1.38594836       0.00497535      -0.00822929       0.01134393      -6.64476919
Co      10.36815513       2.49642720      12.90715205  T       1.29935784      -0.07219461      -0.83098759       0.00123060       0.00913042      -0.00936482      -6.23196268
Co       9.17380039       6.43232833      12.86846198  T      -1.32391523       1.48436026      -2.51842856       0.00943245      -0.01171376       0.00746319      -6.59343576
Co      -0.51783448      14.00475788       9.25089359  F       0.00000000       0.00000000       0.00000000      -0.03517606      -0.35931391       0.29142651      -5.36402130
Co       1.84454656       3.14926696      11.24033356  F       0.00000000       0.00000000       0.00000000      -0.01666877       0.89995873      -0.06803121      -5.02177858
Co       7.61511421      10.63554192      11.24033356  F       0.00000000       0.00000000       0.00000000       0.06175310       0.32407835      -0.42589930      -5.79617500
Co       2.50530360       8.46217169      16.77449709  T       2.00882866       1.34050606      -1.46281956      -0.00840717       0.00326037      -0.00603087      -5.45579863
Co      12.14528923       0.81695573      17.26669111  T      -0.13700684      -0.95827395       1.78465517       0.03266671      -0.01031505       0.02524331      -6.30181980
Co       9.68506530      11.65140538      15.21883794  T      -0.84341332      -0.97908711       1.77624489      -0.03041086      -0.03209868       0.00634211      -5.86758852
Co       3.92552723       4.42590524      15.25340136  T       0.49591853      -2.00641816       2.32035233       0.00006092      -0.00621931       0.00091265      -6.63060093
Co      11.60622700      10.34964508      15.28442954  T       0.29244949      -0.98020164       1.74047662       0.01965776      -0.00309846       0.01205517      -6.25119114
Co       6.03227035       3.07250106      15.25458284  T      -0.72635447      -0.05475768       1.87039817      -0.00325896      -0.01434830      -0.01675937      -6.53357983
Co      10.78033086       4.79001631      16.95463869  T      -0.40730609      -1.46212024      -0.16514143       0.00546755      -0.01812330      -0.00901688      -5.70821619
Co       1.31469677      12.38797389      13.15917224  T      -0.15195761       0.60203009       0.47284012      -0.00684667      -0.04209014      -0.00835635      -6.58894587
Co      -0.25138183       4.42052918      15.32260158  T      -0.27996924       1.01039679       1.68882011      -0.00918868       0.00483030      -0.00620811      -6.56873083
Co       5.64497232      11.79844527      15.18342385  T      -0.44104584       0.05527345       0.69847260      -0.03094929      -0.00821754      -0.00370860      -5.62103367
Co       0.57588980       9.72372633      16.77157575  T      -0.77712263      -1.21051691      -1.77817036      -0.00006951      -0.00434190      -0.00523183      -5.23373461
Co      10.56026421       2.51534186      17.16432815  T       0.05282775      -0.47523744       0.31132317       0.01128881       0.01461308      -0.01983561      -6.05452108
Co       9.09857921       6.38982628      16.76237087  T       1.29473394       0.24158538       0.12878689      -0.00991548       0.02215011       0.00320669      -5.50157261
Co      -0.49361929      14.00811101      13.23578207  T      -0.56824271       1.38597179       2.09861472      -0.01820481      -0.00585163      -0.01160252      -6.52151012
Co       1.80674274       3.10555665      15.29899069  T      -0.19688750       0.12745212       0.09008513      -0.00740076      -0.01896906       0.00071101      -6.61770439
Co       7.60572639      10.64979266      15.29160710  T       0.28060672      -0.06155751       1.66104749       0.06622539      -0.02601708       0.02129836      -6.46538210
Y        9.59727558       9.69174329      13.18564166  T       1.25554429      -0.86198883       0.08176777      -0.00388986      -0.00128986       0.00910839      -7.50429010
Y        3.72620718       2.05235348      13.17686488  T       0.60683689      -0.03604936      -0.13277919       0.01397372      -0.00657535      -0.01181321      -7.49419117
Y       12.35783672       3.26628304      11.24033356  F       0.00000000       0.00000000       0.00000000       0.35474885      -0.21554607       0.14071125      -6.90189838
Y        2.64574003      10.75255775      11.24033356  F       0.00000000       0.00000000       0.00000000      -0.06134560       0.40063953      -0.06047050      -7.08106232
Y       -2.35958659       9.26336102      13.26045677  T      -0.33038033      -0.07635144       0.52898529       0.00542307       0.00245489      -0.00447214      -6.67127800
Y        7.32693360       1.74679169      13.26134015  T      -0.70677498       0.43035179       0.59785851      -0.01399378      -0.00878321      -0.02409634      -6.62919140
Y       13.85276142       5.61744076      13.26725505  T       0.70058678      -1.33176814       0.05800402       0.00412877       0.00410251       0.01109555      -6.67109632
Y        4.16964054      13.17344666       9.25089359  F       0.00000000       0.00000000       0.00000000      -0.31903276      -0.43913162       0.59233499      -6.07629919
Y       11.14714432       6.98271179      11.24033356  F       0.00000000       0.00000000       0.00000000       0.18600214       0.09962401      -0.13533893      -6.63991165
Y        1.43504775      14.46898651      11.24033356  F       0.00000000       0.00000000       0.00000000       0.07715411      -0.04100645      -0.14027199      -7.25112247
Y       -0.81670117      11.70626640      11.24033356  F       0.00000000       0.00000000       0.00000000      -0.23164010       0.00366171      -0.23534003      -7.33404827
Y        8.89539528       4.21999168      11.24033356  F       0.00000000       0.00000000       0.00000000      -0.29821086      -0.16350570       0.01157419      -6.86312342
Y        3.93658876       7.38591671      11.24033356  F       0.00000000       0.00000000       0.00000000      -0.00865399      -0.62198699      -0.25800532      -6.35225344
Y        9.70715618      14.87219143      11.24033356  F       0.00000000       0.00000000       0.00000000       0.02011286      -0.42779401       0.02085240      -6.71646738
Y        0.39399123       7.98983765      11.24033356  F       0.00000000       0.00000000       0.00000000      -0.24334450      -0.29509079      -0.07125985      -6.70947075
Y       10.19053131       0.42646895      15.14470346  T      -0.56599066       0.01387705      -0.98200155       0.00786120      -0.01596117      -0.01527817      -7.12220287
Y       -0.11322439       2.31481051      13.26883212  T      -1.14925604       1.09440667       2.31590534       0.00192171      -0.00047462      -0.00321391      -7.16410351
Y        5.66054778       9.94658639      13.18646159  T       0.70458164       0.96942314       0.36247848      -0.00872464      -0.00168092       0.00646129      -7.19277954
Y       11.65617561      12.55751133       9.25089359  F       0.00000000       0.00000000       0.00000000      -0.05003442      -0.25263745       1.22568536      -6.29459667
Y        5.89477586       4.97832999      13.21266665  T       0.24217608       0.14558403       0.90118429       0.01633701      -0.00284436       0.00909252      -7.23802948
Y        7.60454655       7.58663273      11.24033356  F       0.00000000       0.00000000       0.00000000      -0.02282826       0.40295148      -0.30197492      -6.29300070
Y        1.81782998       0.05814234      15.27000533  T       0.08483766      -0.95430356      -0.32604554      -0.00425923      -0.00419928       0.01541613      -6.70046473
Y        1.93689929       5.23497457      13.19303775  T      -0.33048637       0.20467906      -1.16210378      -0.00021501       0.00079434       0.00407626      -7.52087593
Y        7.75397968      12.78219700       9.25089359  F       0.00000000       0.00000000       0.00000000       0.20806164      -0.22189416       0.93357414      -6.59787083
Y        9.52184224       9.46538189      16.89946627  T       1.50718422       1.70031782      -1.36977234      -0.02270362      -0.00590238      -0.01475556      -6.93335533
Y        3.82925641       2.28813597      16.96063545  T      -0.02708998      -0.33147095      -0.49991216       0.00796010       0.00346051      -0.00209685      -6.81810331
Y       12.30782975       3.14123278      14.95553900  T      -0.35355629      -2.51773842      -0.25109472       0.01400147       0.02763706       0.00506441      -7.45050335
Y        2.69808300      10.69140343      14.96073340  T      -0.80889156      -1.59826484      -0.09504969       0.01702490      -0.03932511       0.00295857      -7.23732948
Y       -2.12624494       9.24253686      16.92210490  T       0.54313987      -0.76444978      -0.74225357      -0.00318102      -0.00717118       0.00051005      -6.28417492
Y        7.65846137       1.95287325      17.12084111  T       1.44118909      -0.87260578       0.38035377      -0.00578009      -0.03514647      -0.01825765      -7.02197838
Y       13.51939520       5.51586803      17.01732349  T      -1.94966160       1.86648576      -1.55622445       0.01116250      -0.02127611      -0.00815440      -6.36296177
Y        4.20643828      13.32458286      13.15108192  T       0.34846399      -1.48164628      -0.11019286      -0.00552805       0.00272849       0.00117990      -7.12551641
Y       11.11702064       6.97929394      14.94072344  T       0.19603955       0.18288445      -0.99380040      -0.00832678      -0.01030122      -0.01548278      -7.17142391
Y        1.55550716      14.41091898      14.90753432  T      -1.68819156      -0.24675314      -0.52418619       0.06268081       0.00564127       0.01667394      -7.09200001
Y       -0.67665064      11.61844970      14.97913507  T       1.99384315      -0.58115020      -0.58617928      -0.02690492      -0.01504073       0.01491950      -6.94048595
Y        8.93059692       4.19143099      14.92253719  T       0.68612800      -1.21187307      -1.48199901       0.00252099       0.01363745      -0.01796045      -7.45867729
Y        3.97781099       7.32990792      14.79339954  T       0.93771020      -1.14608139      -2.66273083      -0.01104248       0.00427656       0.00830684      -6.63193035
Y        9.67676529      14.44092034      15.08056796  T       1.18321743      -2.26655686      -1.39656027      -0.00991671       0.00262797      -0.01642189      -6.19001913
Y        0.37219099       7.86382220      14.88582700  T       0.23961207      -2.88475427      -0.70869460      -0.00512448       0.00034392       0.00583972      -7.19856358
Y       10.17214092       0.44776712      18.95256210  T      -1.02369065       0.30038012      -1.11427283       0.04371148      -0.04339520       0.01751175      -7.06263351
Y       -0.17452879       2.41862057      17.05559632  T      -0.62560020       0.68434321      -1.38116898      -0.00241767      -0.00766120      -0.00169542      -6.68885708
Y        5.50139080       9.75182250      16.82796393  T      -1.35915048      -0.86133538      -3.78870269       0.00314899      -0.02244361      -0.00793067      -6.60038948
Y       11.68525106      12.49283352      13.09563388  T       0.75818788      -1.30458164      -0.37881487      -0.00421483      -0.01342825       0.00537567      -7.17136717
Y        6.03350025       5.21820626      16.85287581  T      -0.64104483       0.32400825      -0.35466149       0.00602075      -0.02239553       0.00833559      -6.68972206
Y        7.59507158       7.60515920      14.79470444  T      -0.02149014       0.96265594      -0.56326518       0.01967238      -0.00284177       0.00853112      -6.61889076
Y        1.94065878       0.01457706      18.93400122  T       0.70855730       1.35548408      -3.45418763       0.02253743      -0.00877801      -0.01985641      -5.97999716
Y        1.97631641       5.42051021      16.90985074  T       1.57295639       0.61216379      -1.53118952      -0.00882654      -0.00749074       0.00624245      -6.91097116
Y        7.71269118      12.74328890      13.05708740  T       1.25881055      -1.48253719      -1.00643937       0.03097279      -0.02087192       0.00691648      -7.46995163
N        7.82839248       0.12655659      18.64872514  T       2.42421244       0.52277083      -0.41330426      -0.06573670      -0.00962761      -0.04688519      -9.18921471
H        7.70873228       0.58944210      19.55809039  T       0.65109316      -0.25303614       0.04623669      -0.01792170       0.03000153       0.02420518      -3.80475783
