82
Lattice="15.482664108276367 0.0 9.000000350284799e-16 -3.941528797149658 14.972549438476562 -3.978878974914551 0.0 0.0 31.831031799316406" Properties=species:S:1:pos:R:3:move_mask:L:1:momenta:R:3:forces:R:3:energies:R:1 adsorbate_info="_JSON {\"site\": {\"coordinates\": [3.9329074625, 5.522521020000001, 16.213932515], \"connectivity\": 4, \"topology\": [19, 68, 75, 78], \"n_vector\": [0.01694037352781828, 0.9921543921246455, 0.12386559624251266], \"h_vector\": [0.5605535571546613, 0.5998194536894532, -0.5709608852950803], \"site_formula\": {\"Co\": 1, \"Y\": 3}}, \"smiles\": \"S1S\", \"mdf\": 1.4600790699777728, \"adsorbate_formula\": \"HN\"}" bond_change_count=0 energy=-534.2388916015625 stress="0.00032460602233186364 7.830209142412059e-06 -3.739580733963521e-06 7.830209142412059e-06 0.00028640785603784025 -7.251186616485938e-05 -3.739580733963521e-06 -7.251186616485938e-05 6.38245910522528e-05" free_energy=-534.2388916015625 pbc="T T F"
Co       2.33407184       8.45119549      12.91424999  T       1.06304565      -0.18770809      -1.76429175       0.00497568       0.00158760       0.02933089      -6.55146933
Co      12.09652666       0.98341106      13.10241078  T       0.20344206      -0.19665961       1.02328152       0.00486249      -0.01021504       0.03660035      -5.65076590
Co       9.69658852      11.82328224      11.24033356  F       0.00000000       0.00000000       0.00000000       0.10548139       0.13350688      -1.00398505      -6.44355774
Co       3.92602110       4.33700800      11.24033356  F       0.00000000       0.00000000       0.00000000      -0.09348186      -0.43683851      -0.00371742      -5.53947258
Co      11.70440102      10.55078983      11.24033356  F       0.00000000       0.00000000       0.00000000      -0.06911892       0.33411530      -0.48778757      -5.68736458
Co       5.93383265       3.06451464      11.24033356  F       0.00000000       0.00000000       0.00000000      -0.13189794       0.43987563       0.25474688      -4.98070860
Co      11.02863317       4.83246706      12.87054247  T       0.13708134      -1.56818415      -2.13454802      -0.02018932      -0.00500995       0.02587143      -6.64660692
Co       1.22387576      12.38704586       9.25089359  F       0.00000000       0.00000000       0.00000000       0.16718167       0.58785355       0.34273970      -5.02166319
Co      -0.16326515       4.42176008      11.24033356  F       0.00000000       0.00000000       0.00000000       0.15170640      -0.18863449       0.35272396      -5.24691105
Co       5.60730267      11.90803528      11.24033356  F       0.00000000       0.00000000       0.00000000       0.22735265       0.28793934      -1.02229619      -6.31894732
Co       0.49790825      10.00571637      13.00911892  T       0.14101851      -1.26394090      -1.38361424      -0.01578681       0.00799518      -0.00385791      -6.63543177
Co      10.36553970       2.49476486      12.91827696  T       1.29918528      -0.06811738      -0.82542277       0.00858263       0.02008659      -0.00986315      -6.23556995
Co       9.19562888       6.41545064      12.85768274  T      -1.33551693       1.49919096      -2.50918629      -0.01558967       0.01975472       0.00954676      -6.60541248
Co      -0.51783448      14.00475788       9.25089359  F       0.00000000       0.00000000       0.00000000      -0.04687202      -0.41477850       0.29893696      -5.38028336
Co       1.84454656       3.14926696      11.24033356  F       0.00000000       0.00000000       0.00000000      -0.04260244       0.88618279      -0.09048265      -5.01582527
Co       7.61511421      10.63554192      11.24033356  F       0.00000000       0.00000000       0.00000000       0.07894251       0.32859504      -0.37858737      -5.79979420
Co       2.48012598       8.53191841      16.78044902  T       1.68070525       1.83715323      -1.37407083       0.01140463      -0.07455635       0.00489914      -5.80540848
Co      12.14314105       0.81506702      17.28716512  T      -0.17177580      -0.94810020       1.80439842       0.00427587      -0.02573658       0.00218260      -6.30933857
Co       9.66327117      11.61812048      15.22875402  T      -0.84610426      -0.98434700       1.77725413      -0.01094297       0.02794826       0.00820256      -5.86795092
Co       3.91978510       4.19001139      15.17041743  T       0.38380360      -2.61659369       1.68076518       0.01059933       0.00397792       0.01427083      -6.59478188
Co      11.60669424      10.32664222      15.29836255  T       0.28902205      -0.98147037       1.74046110       0.02468043      -0.01959276       0.01080684      -6.25634289
Co       6.00176130       3.08609416      15.24541265  T      -0.56106803      -0.48121880       1.80112841       0.00974172       0.00959495       0.02796489      -6.52996635
Co      10.75692129       4.74732368      16.98009036  T      -0.40340658      -1.48575819      -0.17190535       0.00462624       0.06036157      -0.03409107      -5.68061209
Co       1.37662583      12.39987995      13.16496843  T      -0.07538856       0.97736149       0.80292771       0.00647891      -0.02886686       0.00117534      -6.65575695
Co      -0.19829222       4.38687872      15.31325053  T      -0.30997163       1.00997253       1.67944666       0.00409703       0.02060688       0.00162080      -6.51550817
Co       5.60001905      11.76809985      15.22641724  T      -0.45169006       0.17166504       0.81111373      -0.00271460      -0.05928858       0.00510535      -5.64855337
Co       0.58484340       9.75105067      16.74451350  T      -0.74579693      -1.24918728      -1.83013413      -0.05899870       0.01742368       0.02198899      -5.17572212
Co      10.48593083       2.48595928      17.18271382  T      -0.32882244      -0.69079709       0.53922353      -0.02915817      -0.05790185       0.02756754      -6.12576199
Co       9.06652520       6.37229246      16.77869312  T       1.45391092       0.29777455       0.10969903       0.01207258       0.01292551      -0.02255124      -5.47928762
Co      -0.48274652      14.01871801      13.25689334  T      -0.21191696       1.46888429       2.39081378      -0.01327351      -0.02432931      -0.03537577      -6.55140066
Co       1.86193888       3.07555846      15.30885043  T      -0.17763332       0.07720538       0.03736760      -0.02134969       0.02061366       0.01336467      -6.63226748
Co       7.57357805      10.62102677      15.33817646  T       0.21141237      -0.09628424       1.72378599      -0.06513030      -0.02983493      -0.02237077      -6.44054651
Y        9.60252012       9.69354551      13.18761569  T       1.25044735      -0.86613270       0.08838664       0.00764384       0.00473438      -0.00922146      -7.47913694
Y        3.73294709       1.99941491      13.13218360  T       0.60515779       0.01439653      -0.08620084       0.00851166       0.00847410      -0.01323079      -7.53504658
Y       12.35783672       3.26628304      11.24033356  F       0.00000000       0.00000000       0.00000000       0.35090223      -0.24732369       0.16581525      -6.89816093
Y        2.64574003      10.75255775      11.24033356  F       0.00000000       0.00000000       0.00000000      -0.09628774       0.30269229      -0.13001908      -7.05847740
Y       -2.36731327       9.25074930      13.25687130  T      -0.32594467      -0.07731676       0.53084462       0.00557035      -0.00535278       0.01848201      -6.66216087
Y        7.34163176       1.74869724      13.27577990  T      -0.69188518       0.39261500       0.65688856      -0.00541946      -0.00146174      -0.00376512      -6.63528156
Y       13.86098312       5.59735599      13.29084849  T       0.69301772      -1.32790125       0.05481303       0.00231478       0.02307208      -0.00814738      -6.68308496
Y        4.16964054      13.17344666       9.25089359  F       0.00000000       0.00000000       0.00000000      -0.34075749      -0.42733517       0.56489295      -6.09894609
Y       11.14714432       6.98271179      11.24033356  F       0.00000000       0.00000000       0.00000000       0.25096899       0.09879646      -0.16802762      -6.64465284
Y        1.43504775      14.46898651      11.24033356  F       0.00000000       0.00000000       0.00000000       0.20001483      -0.00859511      -0.02166651      -7.28400660
Y       -0.81670117      11.70626640      11.24033356  F       0.00000000       0.00000000       0.00000000      -0.22001815      -0.00692992      -0.20393597      -7.32302666
Y        8.89539528       4.21999168      11.24033356  F       0.00000000       0.00000000       0.00000000      -0.27338076      -0.20423688      -0.03300297      -6.86048794
Y        3.93658876       7.38591671      11.24033356  F       0.00000000       0.00000000       0.00000000      -0.02775359      -0.60571420      -0.30523902      -6.35918331
Y        9.70715618      14.87219143      11.24033356  F       0.00000000       0.00000000       0.00000000      -0.03469256      -0.45600775       0.06791516      -6.73045731
Y        0.39399123       7.98983765      11.24033356  F       0.00000000       0.00000000       0.00000000      -0.25532925      -0.29348844      -0.06006979      -6.71460152
Y       10.16465127       0.39649083      15.20218583  T      -0.69191222       0.03415004      -0.79494122       0.01214791       0.03285177      -0.00811968      -7.16534138
Y       -0.11447265       2.30123091      13.27966870  T      -1.15706934       1.08562412       2.30504820       0.01920585       0.02996935       0.00557480      -7.15639019
Y        5.66872104       9.93927067      13.20212388  T       0.77439372       1.07867712       0.31969319      -0.00221799      -0.00720907       0.00652972      -7.19088554
Y       11.65617561      12.55751133       9.25089359  F       0.00000000       0.00000000       0.00000000      -0.04100373      -0.24519950       1.23521054      -6.29333591
Y        5.90994769       4.96470622      13.18233417  T       0.27923749       0.05630790       0.59689563       0.00338043       0.00187095       0.02710801      -7.22709179
Y        7.60454655       7.58663273      11.24033356  F       0.00000000       0.00000000       0.00000000      -0.00816521       0.40429580      -0.31328866      -6.29191685
Y        1.82728353       0.04459321      15.28790706  T       0.11880012      -0.95990542      -0.30280673      -0.01814611       0.01195664      -0.00278656      -6.71551323
Y        1.93458729       5.22368633      13.18432386  T      -0.41572996       0.08763394      -1.34173663      -0.02823870      -0.03443395       0.01120294      -7.52869987
Y        7.75397968      12.78219700       9.25089359  F       0.00000000       0.00000000       0.00000000       0.20991614      -0.19389124       0.93985277      -6.61351299
Y        9.50134282       9.47258137      16.90748183  T       1.48556026       1.69232106      -1.38064350      -0.00746212      -0.04059860       0.03549168      -6.94356918
Y        3.88636578       2.20274549      17.02251058  T       0.16138398      -1.02856334      -0.35180310       0.00234445       0.03268085       0.01053103      -6.81780958
Y       12.29464066       3.12144083      14.98021057  T      -0.37483142      -2.51775579      -0.24282318      -0.00033504      -0.00847255      -0.02183232      -7.46655750
Y        2.70089918      10.73766744      14.97392032  T      -0.93403911      -1.28817172      -0.01930966      -0.00084032      -0.02019921      -0.02446816      -7.18893719
Y       -2.10277205       9.21936931      16.93614082  T       0.58101929      -0.76806244      -0.74717064      -0.01550087       0.01406016      -0.03717544      -6.27769089
Y        7.65067231       2.06832415      17.08477583  T       1.51912245      -0.80948953       0.10933564       0.01125599       0.01423565      -0.03550840      -6.42141533
Y       13.57598263       5.48041915      16.99004423  T      -1.95431332       1.86440824      -1.57385499       0.00452837       0.00743580       0.00220386      -6.32465076
Y        4.21935690      13.19556490      13.04440027  T       0.36391321      -1.75320632      -0.41755481      -0.01770139      -0.00489596      -0.01192403      -6.66022015
Y       11.12467343       6.97157499      14.97223311  T       0.19354624       0.18514117      -0.99195546      -0.00145441      -0.02355570      -0.00623417      -7.15796137
Y        1.52621160      14.34116884      14.91464235  T      -1.20114479       0.13884183      -1.42690156       0.03380707       0.03133502       0.02779051      -6.52838707
Y       -0.69651343      11.59027559      14.97391979  T       2.03983953      -0.60330212      -0.55499046       0.01137021      -0.02535389      -0.00413585      -6.92050171
Y        8.92099465       4.23882825      14.90422688  T       0.80519342      -1.32420332      -1.50171817      -0.01088570       0.00157056       0.00860242      -7.44990063
Y        3.99624018       7.29986330      14.76290536  T       1.55387747      -0.47748232      -5.31480854       0.03044681       0.00130250      -0.02216521      -6.86316204
Y        9.68782847      14.43398233      15.07723628  T       1.18581798      -2.25801134      -1.37055378       0.01425111      -0.01063146       0.01035685      -6.18050289
Y        0.38488920       7.90533173      14.87838592  T       0.07376349      -2.68941224      -0.69197943      -0.02805694      -0.07157040      -0.01344354      -7.15636158
Y       10.19246484       0.40727171      18.92259416  T       1.31750703       0.14683531      -1.57115492       0.00035908       0.01132999      -0.00985536      -6.45689106
Y       -0.11998033       2.40732112      17.06052567  T      -0.60025360       0.71564853      -1.39692295       0.00468668       0.03152286      -0.00664204      -6.68947029
Y        5.44476781       9.49209688      16.82907382  T      -1.20801218      -0.65892204      -3.99378059       0.03507007       0.01978044       0.02094789      -6.92055798
Y       11.68150752      12.47658542      13.10349597  T       0.75609722      -1.31468644      -0.38170059      -0.01651414      -0.00410820      -0.00533779      -7.15761185
Y        5.87627554       5.38989842      16.85554432  T       3.25050427      -2.55848466       0.67725694      -0.00484636       0.01404193      -0.03032854      -7.07084942
Y        7.64176005       7.60004640      14.76254946  T       0.14284222       1.10433196      -0.67502599      -0.01781136      -0.01935965      -0.00501063      -6.56593132
Y        1.93723905      -0.01903116      18.96792017  T       0.88943416       1.37250050      -3.43106148      -0.00120880      -0.00090110      -0.00902998      -5.99035406
Y        2.17301361       5.45695089      16.90027940  T       2.20216873       0.40567696      -1.30934936       0.00452548       0.00500314      -0.01346479      -7.15468979
Y        7.70606558      12.72892848      13.09302417  T       1.23950643      -1.48975402      -1.01951704      -0.00469325      -0.02586289      -0.00475009      -7.46078205
N        4.12887366       7.20635394      17.04746265  T      -5.81714952       2.80952269       2.50249207      -0.00147140      -0.00203812       0.03947943      -9.49778080
H        4.13526455       7.14327626      18.06523334  T       0.66404825      -0.16782915       0.45709174       0.05701547       0.04635398      -0.03084153      -3.73784804
