82
Lattice="15.482664108276367 0.0 9.000000350284799e-16 -3.941528797149658 14.972549438476562 -3.978878974914551 0.0 0.0 31.831031799316406" Properties=species:S:1:pos:R:3:move_mask:L:1:momenta:R:3:forces:R:3:energies:R:1 adsorbate_info="_JSON {\"site\": {\"coordinates\": [1.43504775, 14.46898651, 15.21921253], \"connectivity\": 1, \"topology\": [65], \"n_vector\": [0.01586490879580177, 0.2886594724748418, 0.9573003779480331], \"h_vector\": [1.0, 0.0, 0.0], \"site_formula\": {\"Y\": 1}}, \"smiles\": \"Cl\", \"mdf\": 1.7392287869887748, \"adsorbate_formula\": \"HN\"}" bond_change_count=0 energy=-534.10205078125 stress="0.00030710207647643983 6.501184543594718e-06 -3.699530452649924e-06 6.501184543594718e-06 0.000273977464530617 -6.130427937023342e-05 -3.699530452649924e-06 -6.130427937023342e-05 6.065129491616972e-05" free_energy=-534.10205078125 pbc="T T F"
Co       2.33904372       8.44088102      12.92341608  T       0.27344941      -0.56339858      -1.67500836      -0.00478889      -0.00542110      -0.01322880      -6.57614136
Co      12.10476822       1.00251047      13.12117463  T      -1.59003405      -0.07213212      -0.31073069      -0.01126520       0.00579810       0.00002101      -5.64034796
Co       9.69658852      11.82328224      11.24033356  F       0.00000000       0.00000000       0.00000000       0.12197305       0.11992836      -1.07166052      -6.44627190
Co       3.92602110       4.33700800      11.24033356  F       0.00000000       0.00000000       0.00000000      -0.09115201      -0.43833238       0.02212583      -5.54206419
Co      11.70440102      10.55078983      11.24033356  F       0.00000000       0.00000000       0.00000000      -0.07213064       0.31460989      -0.51980245      -5.68249226
Co       5.93383265       3.06451464      11.24033356  F       0.00000000       0.00000000       0.00000000      -0.16961148       0.50453544       0.27990714      -4.98113394
Co      11.01136498       4.83824670      12.86755549  T       0.12929390      -0.20799777      -2.22703998       0.01522830      -0.00378361       0.01422077      -6.65241385
Co       1.22387576      12.38704586       9.25089359  F       0.00000000       0.00000000       0.00000000       0.17992562       0.59263349       0.34375238      -5.02348185
Co      -0.16326515       4.42176008      11.24033356  F       0.00000000       0.00000000       0.00000000       0.16578865      -0.17455931       0.36238599      -5.25228024
Co       5.60730267      11.90803528      11.24033356  F       0.00000000       0.00000000       0.00000000       0.22902745       0.24436322      -1.09143937      -6.30364370
Co       0.50808900      10.00821548      13.00791687  T       0.67535119      -0.23122962      -0.88508970      -0.00128870       0.00187288       0.00765248      -6.63729191
Co      10.37061630       2.51947112      12.92289865  T       1.07613951       0.47962527      -1.33366273      -0.00732749      -0.02109782       0.00178324      -6.24694252
Co       9.17739531       6.43679776      12.86990534  T       0.31381379      -0.09865914      -2.79410994      -0.00620890      -0.00848994      -0.01277849      -6.60243893
Co      -0.51783448      14.00475788       9.25089359  F       0.00000000       0.00000000       0.00000000      -0.03568270      -0.33635592       0.31720152      -5.34442854
Co       1.84454656       3.14926696      11.24033356  F       0.00000000       0.00000000       0.00000000      -0.01134377       0.91250813      -0.03221758      -5.02170086
Co       7.61511421      10.63554192      11.24033356  F       0.00000000       0.00000000       0.00000000       0.07475299       0.31287479      -0.40789181      -5.78958750
Co       2.51216141       8.49346766      16.75869456  T      -0.35328804       0.96710934      -1.74657688       0.00604062      -0.00402427       0.01822530      -5.45250893
Co      12.15878554       0.82583946      17.28797683  T      -0.30006973      -0.70038309       0.45491935       0.01303089       0.00750126      -0.01072250      -6.31918144
Co       9.69228459      11.64639056      15.21779334  T       0.64633292      -2.05841545       1.98019022       0.01174647      -0.00109426       0.00824858      -5.89000368
Co       3.92590026       4.39242125      15.26688177  T       0.81229262      -1.15996379       2.19419359       0.00030698       0.00607974       0.00749815      -6.63347054
Co      11.62501416      10.35819591      15.28503595  T      -0.84266867      -1.47308093       0.25112288      -0.01018934      -0.00551115       0.00924422      -6.25484467
Co       6.02896642       3.15392560      15.18988572  T      -0.79967430      -0.32200241       0.96787216      -0.00064808      -0.00287584       0.00321808      -6.47670364
Co      10.77407196       4.77923408      16.96069395  T       0.68887260      -1.36450852       0.21170363      -0.01810957      -0.00760610       0.00817516      -5.68944788
Co       1.35421819      12.42040478      13.17423548  T      -1.66686299       0.14874858       1.88330552       0.00672299      -0.00493240      -0.00130392      -6.60707140
Co      -0.23956983       4.45250841      15.33130514  T      -1.75244928      -0.73933548       1.55176775       0.01406191      -0.02618034      -0.00427783      -6.57461739
Co       5.64671878      11.94055997      15.15809018  T       1.17329310      -1.49641464       1.64999059       0.00668540      -0.01132388       0.00588697      -5.71777296
Co       0.58105423       9.73726362      16.78041947  T      -0.88129947       0.26410120      -0.43369228      -0.00549111      -0.00006410      -0.00493680      -5.23354006
Co      10.48261224       2.49821494      17.20222040  T       1.07736534      -0.26380723       1.38006487       0.00212120       0.01359861      -0.00432517      -6.05304766
Co       9.11188197       6.42755708      16.75912926  T       1.03855691       1.12057177      -0.36309131      -0.00581885      -0.03047415       0.00317779      -5.51251984
Co      -0.57009440      13.89592429      13.23351166  T      -1.28257195       0.33137649       0.71070567       0.00786719      -0.01409705      -0.00887738      -6.52550650
Co       1.85555347       3.15553134      15.34492104  T      -0.47307808       1.71244331       1.37125941       0.01129001      -0.01161855      -0.00550842      -6.56907177
Co       7.60260528      10.69783369      15.28761322  T       0.37849252       0.44705056       2.15617225       0.00227570       0.00824316      -0.00356525      -6.46183252
Y        9.60334487       9.70060590      13.18480419  T       1.84216604      -1.84359063      -0.43124286       0.00175693      -0.00336849      -0.00578921      -7.49563122
Y        3.74993516       2.07165304      13.18756013  T      -0.93338650      -1.89039479       0.47922044      -0.00956985      -0.01096405       0.00194923      -7.51328230
Y       12.35783672       3.26628304      11.24033356  F       0.00000000       0.00000000       0.00000000       0.36824912      -0.22625285       0.17465694      -6.89879990
Y        2.64574003      10.75255775      11.24033356  F       0.00000000       0.00000000       0.00000000      -0.11577842       0.29282075      -0.11845318      -7.04009056
Y       -2.35537884       9.26445899      13.25598308  T       0.46011706       0.18507943       0.19111720      -0.00222897      -0.00459003       0.00539363      -6.66705799
Y        7.33356084       1.75845034      13.24125029  T      -0.05149451      -0.54543559      -0.67531937       0.01176258      -0.00802537       0.00740875      -6.63859653
Y       13.85020103       5.62298707      13.27117943  T       0.50001150       0.82378050       0.83495913      -0.00112375      -0.00908922      -0.00523508      -6.67192364
Y        4.16964054      13.17344666       9.25089359  F       0.00000000       0.00000000       0.00000000      -0.33475131      -0.43557012       0.55319476      -6.09697866
Y       11.14714432       6.98271179      11.24033356  F       0.00000000       0.00000000       0.00000000       0.19622435       0.11078190      -0.15361989      -6.64191580
Y        1.43504775      14.46898651      11.24033356  F       0.00000000       0.00000000       0.00000000       0.08761140      -0.03962056      -0.10669439      -7.24682999
Y       -0.81670117      11.70626640      11.24033356  F       0.00000000       0.00000000       0.00000000      -0.21615630       0.00126962      -0.23825152      -7.35703278
Y        8.89539528       4.21999168      11.24033356  F       0.00000000       0.00000000       0.00000000      -0.29436916      -0.14567600      -0.02684663      -6.85495758
Y        3.93658876       7.38591671      11.24033356  F       0.00000000       0.00000000       0.00000000      -0.02655236      -0.58724320      -0.23585819      -6.35090542
Y        9.70715618      14.87219143      11.24033356  F       0.00000000       0.00000000       0.00000000       0.03221534      -0.37416846       0.03232535      -6.73517704
Y        0.39399123       7.98983765      11.24033356  F       0.00000000       0.00000000       0.00000000      -0.21735798      -0.27974561      -0.04858748      -6.70942402
Y       10.16085086       0.44779992      15.20169608  T       0.51092613       0.49849115       0.83310938      -0.00177748      -0.02376427       0.00166249      -7.18600178
Y       -0.10687874       2.34786317      13.29727720  T      -0.76629676      -0.52683755      -0.63923836       0.00074177      -0.01314122       0.00508857      -7.14504337
Y        5.66797579       9.97002612      13.21238703  T      -0.29174975      -0.28636154       2.18198972       0.01099232      -0.01314981      -0.01259150      -7.17875147
Y       11.65617561      12.55751133       9.25089359  F       0.00000000       0.00000000       0.00000000      -0.04265431      -0.24504362       1.25170135      -6.28953362
Y        5.90723379       5.01332995      13.19578032  T      -0.27155672       0.42490109      -0.47064717      -0.01873240      -0.00366883      -0.00358447      -7.23066807
Y        7.60454655       7.58663273      11.24033356  F       0.00000000       0.00000000       0.00000000      -0.01994823       0.44277167      -0.31022811      -6.30053043
Y        1.84335117       0.09424445      15.28770318  T      -1.16994515       0.80790213      -0.12400713      -0.00331982      -0.00678225      -0.01329770      -6.73899317
Y        1.94084765       5.23967078      13.20803964  T      -2.18057502       0.28099983       1.03989149       0.00490282      -0.00196709       0.00024204      -7.51869059
Y        7.75397968      12.78219700       9.25089359  F       0.00000000       0.00000000       0.00000000       0.20368615      -0.18744712       0.95425361      -6.61189127
Y        9.51194103       9.47660324      16.89470924  T      -0.23623810       0.59392090      -2.95544672       0.01285682       0.00079872       0.01125460      -6.93647671
Y        3.99453861       2.25262232      17.14039337  T       1.55604355       0.22551642       0.34330349      -0.01090327       0.00217216      -0.00956431      -7.37498856
Y       12.29817719       3.15150290      14.98886745  T      -0.06777639      -1.05971085      -0.23539276      -0.01014151      -0.02173731      -0.01199368      -7.45741320
Y        2.70376792      10.74474418      14.96566646  T      -0.28204153      -0.60355813      -1.03084097      -0.00551759       0.01456964      -0.00126041      -7.24204922
Y       -2.12316597       9.25316109      16.93166015  T       1.16803935      -0.07428908       0.16616525      -0.00828306      -0.02096104       0.00286402      -6.28513527
Y        7.53193671       2.00852170      17.16364013  T      -1.94982786       1.03475464      -0.56661905      -0.02939838      -0.01117056       0.04227549      -7.14546776
Y       13.52701462       5.52877329      17.02271515  T      -2.70261712      -1.27325923      -3.20276694      -0.00919349      -0.00277187       0.00035675      -6.34828281
Y        4.21560701      13.20223692      13.01310531  T       1.10480914      -0.73171906      -0.32396166      -0.00914666      -0.01242715       0.01588795      -6.67034531
Y       11.12104765       6.98128182      14.93856633  T      -0.12704995       0.65627687      -0.32814738       0.00922227       0.00591080       0.00532934      -7.16607857
Y        1.51901665      14.50321706      14.92526704  T      -1.97197828      -8.01032556      -2.09116919      -0.00671059      -0.01886544      -0.00700208      -7.19447136
Y       -0.67746121      11.61298323      14.98661230  T       0.54709317      -1.35820243      -0.46496973       0.00009704      -0.00834864       0.01075231      -6.95064735
Y        8.92241898       4.22070422      14.92284190  T       2.71844138      -0.13451061      -0.08823552       0.00255612      -0.01791175      -0.00355709      -7.48325205
Y        3.97453654       7.35408471      14.78762366  T      -0.13968715       1.20615364       0.14967367       0.00330509      -0.01233575       0.00758486      -6.62625313
Y        9.69216708      14.42725387      15.09138746  T      -0.89663708       1.22671419      -2.26363734      -0.00216911      -0.00013213      -0.00345200      -6.19080353
Y        0.37170883       7.88116821      14.88794635  T      -0.20578019       1.31402256      -0.96389624       0.00269898      -0.00508661       0.00294020      -7.21053123
Y       10.22787785       0.37717740      18.91548588  T       1.54741966      -0.66680908      -1.17550400       0.00403954      -0.00456158       0.00568356      -6.48190022
Y       -0.15848140       2.44225395      17.05364386  T       0.94277330       0.23474467      -1.77558430      -0.01184051      -0.01258223      -0.00923250      -6.68107986
Y        5.51109334       9.83095266      16.79182992  T      -0.25607971       0.61760916      -1.59260322       0.00581995      -0.00913139       0.01346060      -6.60873699
Y       11.69433701      12.48787106      13.08528520  T       0.41042493       0.71137304      -0.20744813       0.00890642       0.00431366       0.00098209      -7.16394949
Y        6.02563854       5.29692410      16.82353897  T       0.73261220      -0.31641468      -1.55532028       0.01669516      -0.00391779       0.00556286      -6.62856674
Y        7.60823951       7.63272476      14.78542397  T       0.14649087      -0.40190051       0.28966884      -0.02139759      -0.00771893       0.00245851      -6.58967447
Y        1.86485980      -0.04302012      18.90623409  T       1.49890607       0.46015939      -2.61434132      -0.01421382       0.01061077       0.01983500      -5.93412590
Y        1.98728693       5.43962755      16.91971676  T       0.52918444       0.99347794       0.17162646       0.00514906      -0.01392861      -0.01048921      -6.94215393
Y        7.72658960      12.75209004      13.05487930  T      -1.61622444       0.70019844      -0.50272298      -0.01312209       0.00397792      -0.00779961      -7.46267319
N        1.78722480      16.79600278      14.61850485  T       1.46019196       6.86469606      -2.57005743       0.05003087       0.03626725       0.06269278      -8.56839275
H        1.92271169      17.24100234      15.52939696  T       0.20129885       0.57949905      -0.51453977      -0.00095071      -0.06010256      -0.07459748      -3.92602277
