82
Lattice="15.482664108276367 0.0 9.000000350284799e-16 -3.941528797149658 14.972549438476562 -3.978878974914551 0.0 0.0 31.831031799316406" Properties=species:S:1:pos:R:3:move_mask:L:1:momenta:R:3:forces:R:3:energies:R:1 adsorbate_info="_JSON {\"site\": {\"coordinates\": [-0.038346840375567286, 0.8050127438411475, 18.534945171638185], \"connectivity\": 3, \"topology\": [69, 72, 77], \"n_vector\": [0.18390560046641385, 0.9351291547358261, 0.30284021212538337], \"h_vector\": [-0.5382001009157934, 0.6391733457184067, -0.5493615253158597], \"site_formula\": {\"Y\": 3}}, \"smiles\": \"S1S\", \"mdf\": 1.8129061550297956, \"adsorbate_formula\": \"HN\"}" bond_change_count=0 energy=-534.7276611328125 stress="0.0002874422643799335 4.713914222520543e-06 -5.245328793535009e-07 4.713914222520543e-06 0.00025642517721280456 -5.618689101538621e-05 -5.245328793535009e-07 -5.618689101538621e-05 5.388591671362519e-05" free_energy=-534.7276611328125 pbc="T T F"
Co       2.33596567       8.42451310      12.92273327  T       0.58629844      -0.14905572      -2.06668440      -0.00129350       0.00424784       0.00148812      -6.57103014
Co      12.15528461       1.01846209      13.11203118  T       0.31748108       1.90676303       0.65629650      -0.01250586      -0.00184787       0.00535220      -5.64077091
Co       9.69658852      11.82328224      11.24033356  F       0.00000000       0.00000000       0.00000000       0.09725722       0.11166851      -1.04458356      -6.44264126
Co       3.92602110       4.33700800      11.24033356  F       0.00000000       0.00000000       0.00000000      -0.08993158      -0.43562120       0.02359150      -5.54341841
Co      11.70440102      10.55078983      11.24033356  F       0.00000000       0.00000000       0.00000000      -0.08946174       0.33204764      -0.50938988      -5.68468285
Co       5.93383265       3.06451464      11.24033356  F       0.00000000       0.00000000       0.00000000      -0.16929282       0.50014371       0.27619711      -4.98829985
Co      11.01849375       4.83990873      12.86119312  T      -0.61904798       0.49323173      -0.72978519       0.02167553       0.00287350       0.04598901      -6.64630795
Co       1.22387576      12.38704586       9.25089359  F       0.00000000       0.00000000       0.00000000       0.17259264       0.58060378       0.34168112      -5.02137804
Co      -0.16326515       4.42176008      11.24033356  F       0.00000000       0.00000000       0.00000000       0.17439461      -0.18101616       0.37209606      -5.25240755
Co       5.60730267      11.90803528      11.24033356  F       0.00000000       0.00000000       0.00000000       0.27707571       0.26216400      -1.07846284      -6.30875349
Co       0.48880404      10.00113740      13.01061191  T      -0.35818910      -0.45978834      -2.57835824      -0.00322650      -0.00216061      -0.01413211      -6.63968325
Co      10.39205774       2.52486921      12.92109714  T       0.64181470       1.18960445      -1.05238022      -0.02058935      -0.02272670      -0.00591902      -6.24476147
Co       9.17820060       6.44478824      12.86852823  T      -0.04690037       0.01614344      -2.58629032      -0.01419672      -0.00047231      -0.01022819      -6.60567856
Co      -0.51783448      14.00475788       9.25089359  F       0.00000000       0.00000000       0.00000000      -0.03680088      -0.34746060       0.28703070      -5.36497021
Co       1.84454656       3.14926696      11.24033356  F       0.00000000       0.00000000       0.00000000      -0.02528554       0.91237801      -0.02928501      -5.02352571
Co       7.61511421      10.63554192      11.24033356  F       0.00000000       0.00000000       0.00000000       0.08556046       0.38607794      -0.35791492      -5.79994774
Co       2.50233766       8.50640821      16.74499994  T       0.68779004       1.84181948      -0.84192948       0.00332831      -0.00762246       0.03098464      -5.45398283
Co      12.02242817       0.81765417      17.22377785  T      -1.34420779      -0.02288023       1.69570071       0.00186637      -0.01021599       0.01711558      -6.29350805
Co       9.69518822      11.66837451      15.26300567  T       0.48547116       1.09192115       0.59800717       0.01646593      -0.00889224      -0.01125118      -5.77838278
Co       3.93720222       4.44735247      15.25599801  T      -0.97431923       0.11607529       1.84104496      -0.00443887       0.00797842       0.01398452      -6.63519096
Co      11.60452142      10.34629390      15.28186967  T       0.46150407      -0.64588273       0.74211029      -0.01614386      -0.02358881       0.02202296      -6.26144505
Co       6.05902915       3.11382049      15.22250125  T      -1.02309495       0.48914998       3.97178918      -0.00905828      -0.00899655       0.01420751      -6.57268333
Co      10.75907671       4.78329204      16.95008108  T      -0.40143587       0.37837903      -0.40062426      -0.03206164       0.03815861       0.01187124      -5.68833733
Co       1.35536683      12.40355393      13.15360135  T      -1.25370265       0.78827918       0.81175365       0.01141758      -0.04188047      -0.01654858      -6.65681171
Co      -0.21356735       4.46258893      15.35870710  T      -1.98545554       1.49846562       1.51304978       0.00753775      -0.03300282      -0.00559890      -6.54333305
Co       5.63628289      11.94057315      15.15892494  T       0.33151682      -1.00081364       0.94674117      -0.00585030      -0.00430150       0.00101115      -5.71644354
Co       0.56801535       9.75411556      16.74925432  T      -0.29119149      -0.55525838      -0.01893872      -0.00511503       0.00238791       0.02005728      -5.24375391
Co      10.43517302       2.50874618      17.17598116  T       1.27028291       0.92196296       0.49839579       0.00038658      -0.02646151       0.01841559      -6.12579536
Co       9.10207152       6.44055810      16.75942347  T      -0.51995987       0.32157185      -1.27036853       0.02199198      -0.06893806      -0.00263977      -5.52763510
Co      -0.51096845      13.98627352      13.25056224  T      -0.28495169       0.94450651       2.02102509       0.00998281       0.00096545      -0.03611524      -6.48200417
Co       1.82861446       3.17216349      15.34751925  T       0.95009755      -0.05615603       1.29218667       0.00091644      -0.00417888      -0.00715311      -6.55072594
Co       7.60401426      10.70227198      15.29923307  T       0.11665253      -0.18525949       1.04640707      -0.00642367      -0.02682484       0.00556511      -6.44854593
Y        9.58643377       9.70094838      13.19668602  T      -0.63674305       0.79812478      -0.18506297       0.01601002      -0.00009949       0.00663844      -7.48795557
Y        3.75061225       2.06113133      13.16880709  T      -1.94365763      -0.29951025       1.35927046      -0.01620054       0.00371307       0.00220277      -7.48251534
Y       12.35783672       3.26628304      11.24033356  F       0.00000000       0.00000000       0.00000000       0.42383099      -0.22322619       0.12767047      -6.91234016
Y        2.64574003      10.75255775      11.24033356  F       0.00000000       0.00000000       0.00000000      -0.10551701       0.27135238      -0.13569458      -7.04516268
Y       -2.35902276       9.25834144      13.24677449  T      -1.08637825      -0.19624289      -0.22633410      -0.00508484       0.00095041       0.03209017      -6.65958023
Y        7.33166661       1.74843881      13.24129830  T      -1.41550155       0.17052798       2.48892393       0.02220711      -0.00249747       0.00788293      -6.64409161
Y       13.85856748       5.61770708      13.27882195  T       0.53381822       0.86044826       1.06532479      -0.00394080      -0.02481540       0.01361141      -6.66750908
Y        4.16964054      13.17344666       9.25089359  F       0.00000000       0.00000000       0.00000000      -0.34928328      -0.44624859       0.54525930      -6.10785675
Y       11.14714432       6.98271179      11.24033356  F       0.00000000       0.00000000       0.00000000       0.20424676       0.12893277      -0.17498809      -6.64468241
Y        1.43504775      14.46898651      11.24033356  F       0.00000000       0.00000000       0.00000000       0.12754764       0.00851315      -0.09071250      -7.26766872
Y       -0.81670117      11.70626640      11.24033356  F       0.00000000       0.00000000       0.00000000      -0.21131466      -0.00615793      -0.24539521      -7.32928467
Y        8.89539528       4.21999168      11.24033356  F       0.00000000       0.00000000       0.00000000      -0.28672525      -0.15187965      -0.02657155      -6.84803391
Y        3.93658876       7.38591671      11.24033356  F       0.00000000       0.00000000       0.00000000      -0.00932758      -0.59728169      -0.23951572      -6.35401392
Y        9.70715618      14.87219143      11.24033356  F       0.00000000       0.00000000       0.00000000      -0.01062638      -0.31639695      -0.04156040      -6.70699644
Y        0.39399123       7.98983765      11.24033356  F       0.00000000       0.00000000       0.00000000      -0.23037456      -0.28197038      -0.06607595      -6.71422386
Y       10.16765896       0.42588317      15.14686030  T       1.24452672       1.86992973       1.13952261      -0.00934036      -0.02053744      -0.01160026      -7.17151833
Y       -0.10438598       2.35658823      13.31139097  T       0.79104922      -1.07639377      -0.35227499      -0.00665705      -0.01198395      -0.00506911      -7.14736414
Y        5.67301581       9.98132799      13.21241617  T      -2.01160593      -0.45890970      -1.29968911       0.02691539      -0.00402334      -0.01142443      -7.18325281
Y       11.65617561      12.55751133       9.25089359  F       0.00000000       0.00000000       0.00000000      -0.04441626      -0.24875548       1.25098372      -6.28143740
Y        5.90701789       5.00148905      13.19782630  T      -0.20801413       2.16031084       0.30786905      -0.02262695      -0.00094212      -0.00570283      -7.23351955
Y        7.60454655       7.58663273      11.24033356  F       0.00000000       0.00000000       0.00000000      -0.03606158       0.44921297      -0.31257743      -6.30287075
Y        1.84768463       0.06827959      15.26326284  T       0.45379421      -0.91582941      -0.16647916       0.00186779      -0.00482425      -0.02270656      -6.70900059
Y        1.94438557       5.24611755      13.20685483  T      -0.55498367       0.20551325      -0.92866296       0.00264116      -0.00740205       0.00701123      -7.52263165
Y        7.75397968      12.78219700       9.25089359  F       0.00000000       0.00000000       0.00000000       0.21634422      -0.22212924       0.95055723      -6.59036589
Y        9.50312463       9.45860560      16.90890829  T       0.70495959       0.28639931      -1.43983250       0.01075236       0.00748135      -0.03496090      -6.93991375
Y        3.93355131       2.31662789      16.94891561  T       2.77664880       0.09250838      -1.05244072      -0.00444577      -0.01424597      -0.01799132      -6.84415197
Y       12.30660472       3.14876849      15.00893626  T      -0.24580202      -0.65454675      -1.68405913      -0.00389568      -0.01438972      -0.02490155      -7.47346020
Y        2.70172655      10.73399392      14.94597701  T       0.42491955       0.45847777       0.13285891       0.01351110       0.01459954       0.02370613      -7.24510288
Y       -2.13163779       9.26589089      16.93213819  T       0.53222167       1.66336557      -1.26438536      -0.00543891      -0.00314352      -0.01036275      -6.28585482
Y        7.65426835       1.99678185      17.02989399  T       0.36719770      -0.37546397      -2.23598529       0.00251514      -0.00116144      -0.00692979      -6.40434265
Y       13.52608023       5.56871971      16.99620475  T       0.75764343      -1.12947131      -1.80272277      -0.00871109      -0.01768573      -0.00956360      -6.32568073
Y        4.21003149      13.22014734      12.99611270  T      -0.37173022      -0.65766220       0.88764906      -0.00606902      -0.01188478       0.01599617      -6.66357994
Y       11.11912737       6.99445450      14.93122158  T       0.01912134       3.28582223      -0.19085582      -0.01731669      -0.00828888       0.01799638      -7.15694046
Y        1.50941402      14.35793973      14.87647387  T       1.65744151      -0.47993443      -1.44533469       0.03962314       0.03704324       0.06038332      -6.53096008
Y       -0.69477430      11.61316466      14.96394850  T       1.79515171       0.75050377      -0.26391620      -0.01950314      -0.02215159      -0.00073073      -6.93237686
Y        8.93069132       4.24496255      14.89124973  T       2.50157539      -0.56921880      -1.22247858       0.00948542      -0.02217010      -0.00341518      -7.46231985
Y        3.99202100       7.35892014      14.78870964  T      -0.73325576       1.59170259       1.06280748      -0.02013718      -0.00738675       0.01410136      -6.63848686
Y        9.78891307      14.71451892      15.07446466  T       0.59711425      -1.27105866      -1.00148829      -0.03400521      -0.03924106      -0.01232088      -7.06439209
Y        0.36188822       7.87631850      14.88675330  T      -1.03270273      -0.74161048      -1.30991808       0.02033019      -0.00800983      -0.00662481      -7.20658588
Y       10.13945100       0.36682577      18.92347462  T      -1.10358230       2.46179752      -3.34999163       0.01422044       0.01587009      -0.02218822      -6.48676777
Y       -0.14632178       2.43666352      17.22491396  T       1.25709704       0.05033531      -1.91739199      -0.00860162      -0.03842175       0.01909718      -7.40945482
Y        5.50902382       9.83719479      16.79682644  T       0.85288596      -0.11352759      -2.63290630      -0.00040530       0.00227721      -0.00082658      -6.60415554
Y       11.67426249      12.46898717      13.09587336  T       0.11754416      -1.26461717      -2.10621049      -0.00979565      -0.00103281      -0.00106943      -7.19178057
Y        6.06101220       5.25777662      16.85624873  T      -0.01025066       0.62562534      -2.38314608       0.00496599      -0.00628233      -0.00152146      -6.67560005
Y        7.59391977       7.62921331      14.78702296  T       0.24296370       1.87234193      -0.59026953      -0.00149260      -0.01022672       0.01498924      -6.58856058
Y        1.91721897       0.05666608      19.02732741  T      -0.55064655       1.45340747      -1.03200808      -0.05659166       0.05015424       0.05310034      -6.95601416
Y        2.00577071       5.47452836      16.92160466  T      -0.96070593      -0.86263066      -1.57783934       0.00387281      -0.01951930      -0.02414564      -6.92259121
Y        7.75458913      12.78073770      13.10432843  T       0.63930876       0.85102381      -0.80420931       0.00013297      -0.01304883       0.00097950      -7.51981640
N       -0.03879318       1.22826058      19.28183188  T      -1.39800327      -2.57095937       0.34090034       0.05078390       0.01903425       0.02756293      -8.47324944
H        0.03765574       1.93066390      20.02061977  T       1.05063510      -0.07880972      -0.48120587      -0.02867196      -0.06515774      -0.00411165      -3.95472574
