87
Lattice="13.315120697021484 -0.0 -8.000000134899068e-16 -1.2000000467046398e-15 7.687488555908203 -2.748189687728882 -0.0 3.700000002833815e-15 30.230087280273438" Properties=species:S:1:pos:R:3:move_mask:L:1:momenta:R:3:forces:R:3:energies:R:1 adsorbate_info="_JSON {\"site\": {\"coordinates\": [7.59321165, 0.50310314, 17.96138382], \"connectivity\": 1, \"topology\": [3], \"n_vector\": [-0.48521632019542876, 0.451765059476074, 0.7486477500484366], \"h_vector\": [1.0, 0.0, 0.0], \"site_formula\": {\"Cr\": 1}}, \"smiles\": \"Cl\", \"mdf\": 1.7535142417301466, \"adsorbate_formula\": \"CHO\"}" bond_change_count=0 energy=-770.4552612304688 stress="0.000514769519213587 1.6856274669407867e-05 1.5212028301903047e-05 1.6856274669407867e-05 0.0003688456490635872 -1.5247025658027269e-05 1.5212028301903047e-05 -1.5247025658027269e-05 0.0003585052618291229" free_energy=-770.4552612304688 pbc="T T F"
Cr       3.60962444       4.09245975      15.25485781  T       0.17084482      -0.85048135       1.29822802       0.02926391       0.09462257      -0.00407529     -10.20501328
Cr      10.14094178       0.30201439      17.93385606  T      -0.46043390      -1.00606912      -0.50278508      -0.02046221      -0.00070821      -0.02397366      -9.25507259
Cr       0.95045337       4.42353916      15.19281731  T      -0.94788063      -0.14452045       1.71021331      -0.04430440       0.03090432       0.02099264     -10.45499802
Cr       7.58694213       0.40782214      17.86273013  T       0.75795834      -0.38477544      -4.27093775       0.02586752       0.03107792      -0.05545777      -9.37334728
Cr       2.14973100       2.22454955      17.59343417  T      -2.56438973       2.48847543      -3.22600287      -0.06705482       0.01951872       0.01132393      -9.80094337
Cr       8.70715343       5.67138124      15.37635492  T      -0.66415373      -0.62996758       2.52379240       0.01315495      -0.00827140       0.01447129     -10.09902191
Cr       3.08479126       6.49364444      16.38764183  T      -0.99228672      -0.11565482      -1.50216890       0.00856659       0.00237007       0.02364758      -8.69602299
Cr       9.51265622       2.90117987      16.87441279  T      -2.37009323       1.09837635       2.16985773      -0.01117337      -0.03831887       0.02323207     -10.47183418
Cr       5.62616734       6.50364488      16.50227164  T      -0.71405915      -1.25800466      -1.85930245      -0.08591326       0.02580532       0.00368845      -9.34257698
Cr      12.53042413       2.37490194      16.96098836  T       1.81379061      -0.49366233       1.99464604      -0.00091712       0.01013860      -0.00590384     -10.46287060
Cr       4.41495586       1.17572440      16.73288232  T      -0.21269268       1.43697651       2.44299675       0.05264166      -0.03910768       0.00052831     -10.03711605
Cr      11.42353693       4.81201659      16.46647955  T       1.08476232      -2.50663970      -0.85009876       0.00057656      -0.06110403       0.05771703      -9.69485092
Cr       3.51657271       4.32285738      12.46500301  F       0.00000000       0.00000000       0.00000000       0.25315487      -0.02715632      -0.09444730     -10.21353245
Cr      10.22293773       0.48637202      15.20030877  T      -0.04247473       0.44254334       0.64973976      -0.01978695       0.04903127       0.00419009     -10.21802998
Cr       0.93565130       4.34684753      12.46500301  F       0.00000000       0.00000000       0.00000000       0.00413066       0.05258971      -0.05493349     -10.29885483
Cr       7.61697807       0.46898526      15.18208853  T       0.06069824      -1.17379773       0.09453514       0.00295502       0.03840506       0.04758327     -10.12698650
Cr       2.06923592       2.06915079      15.10163839  T      -0.61855286      -0.27642108      -0.42805232       0.00405192       0.02838713      -0.05338481     -10.15876675
Cr       8.86289692       5.94345331      12.46500301  F       0.00000000       0.00000000       0.00000000      -0.00831380      -0.08830899      -0.05028291     -10.28286171
Cr       3.08246293       6.67503556      13.70871117  T      -0.43323804       0.03620064      -0.54633659       0.01401776       0.03113616      -0.01062047     -10.22547054
Cr       9.80401004       2.84172481      13.87027814  T       0.38506398       0.32336479      -1.37453792       0.00762075       0.04974280      -0.01579462     -10.26019859
Cr       5.71679189       6.63624457      13.73390371  T      -0.42564892      -1.06393106      -1.20004569      -0.00339058       0.04743958      -0.01359553     -10.07304382
Cr      12.39157129       2.79679179      13.85691903  T      -0.27539894      -0.30086291       0.42954318      -0.01497918       0.01239133      -0.00893217     -10.27380562
Cr       4.48897527       1.18479764      13.72134110  T       1.07747130       0.23682147      -0.65979546      -0.02224958      -0.00310019       0.01019400     -10.42481995
Cr      11.07835717       5.05086087      13.79390287  T       1.33097292      -0.33829098      -0.44738698       0.01889375       0.02262825       0.00170919     -10.20004654
Cr       3.51657271       4.32285738       9.71681404  F       0.00000000       0.00000000       0.00000000      -0.08027141       0.92940909       0.88485432      -8.79867172
Cr      10.17413330       0.47911340      12.46500301  F       0.00000000       0.00000000       0.00000000       1.96923470      -0.29010138      -0.23531044     -10.04423618
Cr       0.93565130       4.34684753       9.71681404  F       0.00000000       0.00000000       0.00000000       0.66781485       2.14346600       1.29933083      -8.67221546
Cr       7.59321165       0.50310314      12.46500301  F       0.00000000       0.00000000       0.00000000      -2.47118568       1.02078044      -1.29782605     -10.14488888
Cr       2.20533633       2.09970903      12.46500301  F       0.00000000       0.00000000       0.00000000      -0.41387010      -1.86032486      -2.40755248     -10.45574188
Cr       8.86289692       5.94345331       9.71681404  F       0.00000000       0.00000000       0.00000000      -0.94603765      -0.42024320       1.52849865      -8.98263931
Cr       3.14098763       6.70049572      11.09090900  F       0.00000000       0.00000000       0.00000000      -0.48100114      -0.06917279      -1.73928010     -10.44874573
Cr       9.79854774       2.85675168      11.09090900  F       0.00000000       0.00000000       0.00000000      -0.59996784      -0.55549687       1.48668087      -8.89570236
Cr       5.72190905       6.67650604      11.09090900  F       0.00000000       0.00000000       0.00000000       0.41179565      -0.59750336      -1.60273528     -10.50299263
Cr      12.37946892       2.83276200      11.09090900  F       0.00000000       0.00000000       0.00000000      -0.04843497      -1.31455100       1.65125728      -8.98953724
Cr       4.45222378       1.23615611      11.09090900  F       0.00000000       0.00000000       0.00000000       0.95700127      -1.38428509       1.59018219      -9.37195015
Cr      11.10978413       5.07990026      11.09090900  F       0.00000000       0.00000000       0.00000000       0.39648327       2.07360959      -0.13605878      -9.87832642
N        3.72438051       2.16542753      18.20323273  T      -2.96421026      -2.47486485      -2.24448954       0.00040001       0.01466912       0.02113283      -7.03004599
N       10.73658737       6.25211238      15.44866831  T      -0.05462549      -0.14962522       0.76853806       0.03237119       0.01049894      -0.02417504      -8.58055592
N        1.91338944       6.08320681      15.13056739  T       0.32165416       0.57193251       0.71713649       0.03831297       0.01277804       0.01040216      -8.28205109
N        8.64268834       1.95104843      17.98347347  T       0.41280064      -0.78298199      -2.30189516       0.01614403       0.00472367      -0.00608724      -7.73127317
N        0.40203134       2.01730937      18.10968206  T       1.36862818       0.04986517      -1.60456575       0.04412317      -0.01219895       0.01497746      -7.66016769
N        6.82198748       6.09665036      15.23274833  T      -0.23437850       0.77411433       0.41882032       0.02437042      -0.00679687      -0.06132178      -8.63580704
N        2.39927530       0.79529484      16.49176876  T       0.29837325       0.09342770       0.44240875      -0.04097691      -0.03869173      -0.02258872      -8.47507000
N        8.73643392       4.37765620      16.57513472  T       0.70448005      -0.21297648      -1.45603331       0.01835769       0.01508964       0.01252431      -7.80168962
N        4.49453518       5.15508973      16.57282001  T      -0.54622772       2.27392508      -0.41169500       0.02590132      -0.00030383      -0.02540016      -8.02716923
N       11.31820761       1.02125161      16.73699325  T      -0.35288652      -0.38479424       0.24078633       0.01458186      -0.01526371       0.00244212      -8.44146824
N        6.32579077       0.85988266      16.59488533  T       0.01812505      -1.07268507       0.09676868       0.02748360      -0.03597337       0.05407298      -8.53628349
N       13.07592365       4.96901777      16.47681194  T      -0.74826450      -0.35256131      -1.01963023      -0.01387793       0.00631326      -0.01883173      -7.59259605
N        4.41317906       7.47983120      15.55794545  T      -0.00868440      -0.21153973       0.73838018      -0.00426394      -0.05922601       0.01561372      -8.62763596
N       11.15955830       3.49257612      17.72849209  T       0.15805323       0.27963123      -2.42131799       0.00196589       0.02480344      -0.05338275      -7.54635000
N        2.20214789       3.65068941      16.44247591  T       0.07969733      -0.55615929      -1.22270887       0.00831135       0.01632762       0.02440068      -8.35499763
N        8.61952091       7.46506933      16.71336377  T      -0.63755021       2.09274186      -0.94514141       0.00127573      -0.00838752      -0.00954807      -8.28885841
N        4.32706215       2.44530582      15.24851600  T      -0.19169987      -0.98255127       0.02388056       0.01131085      -0.00686219      -0.00059093      -8.18144703
N       10.91840553       6.40247297      12.46500301  F       0.00000000       0.00000000       0.00000000      -0.10691795      -0.94579101      -0.13788864      -8.37360668
N        2.09129524       5.87347078      12.46500301  F       0.00000000       0.00000000       0.00000000       0.18611938       0.04449378      -0.66428870      -8.39799118
N        8.91477371       1.93494001      15.27532959  T       0.83497919      -0.37897904      -0.59475934      -0.00500673       0.00385012       0.00666724      -8.37314415
N        0.21511375       2.32165100      15.25368498  T      -0.33863041       0.69783214      -0.24320643      -0.00645822       0.00896135       0.01668034      -8.35188675
N        6.96297979       6.18095827      12.46500301  F       0.00000000       0.00000000       0.00000000      -0.26758170       0.25032455      -0.06158593      -8.35533142
N        2.47354854       0.82737301      13.80568357  T       0.64169706       0.64326047       0.01665112      -0.01405650       0.03143242      -0.00015222      -8.44299698
N        9.05192378       4.65771617      13.86453642  T       0.55754437       1.07627372       0.24647361       0.05082747      -0.01400135      -0.00299615      -8.28906918
N        4.38960140       5.23354275      13.88734561  T      -0.59687440       0.24346485       0.12842642       0.00410604      -0.01276182       0.01572534      -8.45515823
N       11.16192497       1.27363708      13.80695669  T      -1.25904508      -0.00294500      -0.27791857      -0.02133185      -0.01368460      -0.01568499      -8.41162491
N        6.43376235       0.94359018      13.82259249  T       0.80294704      -0.81980442      -0.20168412      -0.02636102       0.00060898       0.00984373      -8.43348122
N       13.02939687       4.78454496      13.79428786  T       0.46246040      -0.26225905      -0.08302695       0.00575317      -0.01259580      -0.02027830      -8.20290375
N        4.43837357       7.43354893      12.46500301  F       0.00000000       0.00000000       0.00000000      -0.11080147       0.05990499       0.34003571      -8.94476891
N       11.12334692       3.58532672      15.09979508  T       0.09287870       0.08050368      -0.73412005      -0.00211720      -0.02103285       0.00237483      -8.74984550
N        2.23538636       3.58620654      13.82517323  T      -0.21331822       0.24206523      -0.08945223      -0.00315028      -0.00900998      -0.01485528      -8.98307896
N        8.85413083       7.37423316      13.96377536  T       0.31043236      -0.27850083      -0.23666490      -0.03544638      -0.00282606      -0.01173997      -9.07923794
N        4.26084566       2.55872869      12.46500301  F       0.00000000       0.00000000       0.00000000      -0.05902082      -0.51480967      -0.63809788      -8.52321815
N       10.91840553       6.40247297       9.71681404  F       0.00000000       0.00000000       0.00000000      -1.76674235      -0.23000827       0.71385294      -7.57750034
N        2.09129524       5.87347078       9.71681404  F       0.00000000       0.00000000       0.00000000       0.40372777      -2.37132406       0.89803559      -7.44594860
N        8.74885559       2.02972674      12.46500301  F       0.00000000       0.00000000       0.00000000       0.76123643      -0.16611646      -0.82749182      -8.63410378
N        0.30541945       2.33721423      12.46500301  F       0.00000000       0.00000000       0.00000000      -0.52715951       0.45634264      -0.58047819      -8.43543434
N        6.96297979       6.18095827       9.71681404  F       0.00000000       0.00000000       0.00000000       1.63057542       0.92253894       0.47198313      -7.35523224
N        2.39671469       0.77713639      11.09090900  F       0.00000000       0.00000000       0.00000000       2.16300941       2.28604078       1.87663412      -5.72665834
N        9.05427456       4.62088060      11.09090900  F       0.00000000       0.00000000       0.00000000       0.41199386       0.29438445      -0.85861558      -8.84444332
N        4.56626511       5.14988232      11.09090900  F       0.00000000       0.00000000       0.00000000      -0.57441926      -0.44661668      -0.29402933      -8.52022457
N       11.22382545       1.30613840      11.09090900  F       0.00000000       0.00000000       0.00000000      -0.58017892       1.62800181       0.42587072      -7.67911005
N        6.35214090       0.99865079      11.09090900  F       0.00000000       0.00000000       0.00000000      -1.17105401      -0.33657125       1.58866882      -6.76867580
N       13.00970078       4.84239483      11.09090900  F       0.00000000       0.00000000       0.00000000      -0.02158185      -1.25385261      -0.78109735      -8.85639477
N        4.43837357       7.43354893       9.71681404  F       0.00000000       0.00000000       0.00000000      -0.13795173       0.77420849       0.90420830      -7.69386148
N       11.09593391       3.58980465      12.46500301  F       0.00000000       0.00000000       0.00000000      -0.08766818      -0.15403451      -1.51063669      -9.28046989
N        2.21918678       3.58980465      11.09090900  F       0.00000000       0.00000000       0.00000000      -0.08115691       0.41013688      -0.82047677      -8.86340714
N        8.87674713       7.43354893      11.09090900  F       0.00000000       0.00000000       0.00000000       0.22742933      -0.47688115      -0.71820503      -9.26020908
C        8.08694287      -0.20989219      20.69037326  T       0.82128894      -0.82438955       3.99052092       0.00257719      -0.06395882      -0.06199610      -9.16798401
O        6.85019281      -0.41860256      20.98690929  T      -0.71044786      -1.25433932      -0.03896211      -0.01234531      -0.03300976      -0.02103448      -6.75153732
H        8.76511103      -0.00995339      21.53623133  T       0.56413526      -0.16975973       0.18368451       0.06744671       0.03045862      -0.01250845      -3.59711790
