87
Lattice="13.315120697021484 -0.0 -8.000000134899068e-16 -1.2000000467046398e-15 7.687488555908203 -2.748189687728882 -0.0 3.700000002833815e-15 30.230087280273438" Properties=species:S:1:pos:R:3:move_mask:L:1:momenta:R:3:forces:R:3:energies:R:1 adsorbate_info="_JSON {\"site\": {\"coordinates\": [11.09593391, 3.58980465, 17.96138382], \"connectivity\": 1, \"topology\": [49], \"n_vector\": [-0.04590283228667222, 0.15733111481349094, 0.986478509801205], \"h_vector\": [1.0, 0.0, 0.0], \"site_formula\": {\"N\": 1}}, \"smiles\": \"Cl\", \"mdf\": 1.753514241730146, \"adsorbate_formula\": \"CHO\"}" bond_change_count=0 energy=-769.8784790039062 stress="0.0005455688224174082 1.9181385141564533e-05 2.576105180196464e-05 1.9181385141564533e-05 0.0004207062011118978 4.239084773871582e-06 2.576105180196464e-05 4.239084773871582e-06 0.00037316622911021113" free_energy=-769.8784790039062 pbc="T T F"
Cr       3.63828685       4.11561165      15.23958551  T       0.37343573      -1.04896500       1.39911903       0.02573699      -0.02114339       0.00685688     -10.19206238
Cr      10.19181424       0.20826681      17.87878043  T       0.08756317      -1.18246479      -1.40887953      -0.03584078       0.01828324       0.01318112      -9.32923889
Cr       0.97791524       4.46960977      15.21333383  T      -0.92910939       1.06653330       1.84277719       0.01394045      -0.02568257       0.01324195     -10.42294502
Cr       7.65959804       0.47724777      17.88527989  T       2.88354481       0.82965258      -1.85384669      -0.00110632      -0.04539704       0.02274311      -9.50048828
Cr       2.21689627       2.27614536      17.58342523  T      -2.28159366       1.27190679      -2.98089210       0.04830149      -0.06063925       0.00656581      -9.75120831
Cr       8.66092891       5.73620021      15.45246490  T       0.46660084      -1.97343632       1.38300697       0.01173301      -0.07311544       0.05677554     -10.23310184
Cr       3.11658791       6.51607473      16.39290844  T       0.07501136      -0.72776182      -1.54273508       0.00379642      -0.06261931       0.01472721      -8.84903526
Cr       9.51237812       2.88357225      16.88074998  T      -2.91115733       2.52506262       2.34056448       0.01261345       0.05484119       0.00969484     -10.18786812
Cr       5.68351522       6.50823141      16.47041307  T      -0.20936836      -2.14730822      -2.45171377       0.02755499      -0.07679665      -0.05301411      -8.98706245
Cr      12.62028475       2.54349629      16.93410125  T       2.84799873      -0.98913605       2.93627118       0.04496877      -0.00281906       0.03809530     -10.19690228
Cr       4.43850976       1.17296232      16.73128623  T       1.00610434       1.24256062       2.48656840       0.00028774       0.00572503       0.03463116     -10.05801392
Cr      11.32944723       4.87544486      16.43096610  T       0.31580450      -1.30779325      -0.16089319      -0.02054709       0.01317942       0.02341062      -9.52026844
Cr       3.51657271       4.32285738      12.46500301  F       0.00000000       0.00000000       0.00000000       0.23783565      -0.01143455      -0.06321170     -10.21366596
Cr      10.21145229       0.52434303      15.23934430  T       0.02367637       0.43529137       0.16863720      -0.02886641      -0.00766032      -0.02876002     -10.24808693
Cr       0.93565130       4.34684753      12.46500301  F       0.00000000       0.00000000       0.00000000       0.09864299       0.04036450      -0.10650137     -10.30507660
Cr       7.63028888       0.49072824      15.17298750  T      -0.86181255      -0.95940182       0.45476053      -0.00316536       0.03142732       0.04516385     -10.16614532
Cr       2.10197628       2.07882616      15.09651805  T       0.92723948      -0.43045249       0.60325211      -0.02778062       0.02897304      -0.00567739     -10.20995522
Cr       8.86289692       5.94345331      12.46500301  F       0.00000000       0.00000000       0.00000000       0.04639554       0.03807986      -0.08754773     -10.29953003
Cr       3.07262756       6.68673951      13.71685898  T       0.01110746      -0.59825268      -0.67953532       0.00540912       0.00627369       0.00033934     -10.22057438
Cr       9.80997362       2.86628473      13.86286223  T       0.30090493      -1.03941303      -0.37612653       0.01084870       0.01853523      -0.00504090     -10.25550365
Cr       5.73604801       6.65242625      13.72197180  T       0.77154616      -1.28259900      -0.48794751      -0.00484575       0.00007117       0.00090536     -10.13508511
Cr      12.39201834       2.82222648      13.85722175  T       0.54485280      -0.94083892      -0.13146988      -0.00489780      -0.02142996      -0.00298096     -10.30328751
Cr       4.49212061       1.18443460      13.72143944  T       0.88103279      -0.96448622      -0.88663313      -0.00658092       0.03197104       0.01659578     -10.43140316
Cr      11.06156441       5.07196685      13.78589375  T       0.51259552       1.21714723       0.13491101      -0.01860949      -0.00736642       0.00119208     -10.27651501
Cr       3.51657271       4.32285738       9.71681404  F       0.00000000       0.00000000       0.00000000      -0.08271521       0.92919338       0.88852042      -8.79814911
Cr      10.17413330       0.47911340      12.46500301  F       0.00000000       0.00000000       0.00000000       1.97121239      -0.26684663      -0.17899457     -10.06670094
Cr       0.93565130       4.34684753       9.71681404  F       0.00000000       0.00000000       0.00000000       0.66889977       2.14160466       1.30614316      -8.67258644
Cr       7.59321165       0.50310314      12.46500301  F       0.00000000       0.00000000       0.00000000      -2.48018956       1.02660286      -1.27130079     -10.14656353
Cr       2.20533633       2.09970903      12.46500301  F       0.00000000       0.00000000       0.00000000      -0.44065577      -1.83867621      -2.42436695     -10.45604897
Cr       8.86289692       5.94345331       9.71681404  F       0.00000000       0.00000000       0.00000000      -0.93395591      -0.40545854       1.54662800      -8.98695660
Cr       3.14098763       6.70049572      11.09090900  F       0.00000000       0.00000000       0.00000000      -0.48644865      -0.05553890      -1.73362207     -10.44760990
Cr       9.79854774       2.85675168      11.09090900  F       0.00000000       0.00000000       0.00000000      -0.60648441      -0.58214486       1.50934112      -8.89762211
Cr       5.72190905       6.67650604      11.09090900  F       0.00000000       0.00000000       0.00000000       0.42540544      -0.57405496      -1.61224508     -10.49544239
Cr      12.37946892       2.83276200      11.09090900  F       0.00000000       0.00000000       0.00000000      -0.04743498      -1.33772755       1.66976225      -8.99477673
Cr       4.45222378       1.23615611      11.09090900  F       0.00000000       0.00000000       0.00000000       0.96111393      -1.38721931       1.58493638      -9.37200642
Cr      11.10978413       5.07990026      11.09090900  F       0.00000000       0.00000000       0.00000000       0.40434372       2.13046575      -0.10750499      -9.88815498
N        3.79757871       2.18960095      18.18818621  T      -2.25359136      -2.55563917      -1.24286265      -0.00775909      -0.01518297      -0.00063682      -7.06475973
N       11.04171169       6.36781716      15.30782052  T       0.53468972      -0.22770103       0.36847574      -0.01487562      -0.07243121       0.02269671      -8.52595329
N        1.88595575       6.14056605      15.16627429  T       0.61876824       0.52869737       0.53982459       0.01905829      -0.01502265      -0.02072991      -8.28122234
N        8.48214204       2.04322792      17.94468416  T       0.33799751      -0.81014367      -0.99303023       0.00067009      -0.01158893       0.01646048      -7.76961231
N        0.47860828       2.11287391      18.08910453  T       1.66275843      -0.20820417      -1.76252649      -0.05148768       0.01510465      -0.07117450      -7.61910772
N        6.84129488       5.99553898      15.18728042  T      -0.56443573       0.09095668       0.49541690      -0.06227413       0.01177752       0.01978774      -8.71567440
N        2.41777130       0.81367149      16.50091266  T       0.39210111       0.28222763       0.26673400      -0.00377655       0.00136209      -0.02168176      -8.45465946
N        8.83010995       4.46282229      16.56879702  T       0.97450057      -0.04014000      -1.14786609       0.03294772      -0.05358023      -0.00940049      -8.01666069
N        4.50609416       5.17648603      16.55705182  T      -0.70412736       2.48939901      -0.83009429       0.01181847       0.04614764       0.01223820      -8.05178928
N       11.21880412       1.24593203      16.71468352  T      -0.34405289      -0.21343528       0.39640500       0.00741750       0.02664253       0.01679461      -8.51984501
N        6.32819264       0.81771277      16.60993097  T       0.35660202      -0.86649998       0.49305072      -0.00715964       0.04258463       0.01317558      -8.59330177
N       13.03138598       4.76506294      16.51608088  T      -0.90996896      -0.34971707      -1.57873802      -0.02249634      -0.01269880       0.00811839      -7.61411667
N        4.44249015       7.49846311      15.58220490  T       0.32019323      -0.67603061       0.97408713      -0.04828475      -0.02604108      -0.03327860      -8.64579391
N       11.04827795       3.67549318      17.97011996  T      -0.54094197       2.21633269       0.83865767      -0.01504230      -0.00374512       0.01302384      -8.66365433
N        2.25413567       3.70032987      16.44996158  T       0.15548960      -0.77163358      -0.99162905      -0.05585428      -0.00438303      -0.03730419      -8.37467957
N        8.83457433       7.38059401      16.39680345  T      -0.09450119       0.14302164      -1.87892612       0.04304017       0.00302223      -0.01508462      -7.39076090
N        4.33981861       2.44302740      15.24689541  T      -0.48365046      -0.62771102      -0.21772398      -0.00966692       0.00923952       0.01155518      -8.16943550
N       10.91840553       6.40247297      12.46500301  F       0.00000000       0.00000000       0.00000000      -0.00974721      -0.70532310      -0.34167621      -8.29039478
N        2.09129524       5.87347078      12.46500301  F       0.00000000       0.00000000       0.00000000       0.18405961       0.06961484      -0.57489955      -8.40452480
N        8.87964475       1.99942612      15.26334476  T       1.40723623      -0.15808714       0.35414720       0.00461146      -0.03586258      -0.03768548      -8.27797794
N        0.22389777       2.31633635      15.26593295  T      -1.08275032       0.46462020      -0.16691920       0.01478382      -0.04023463       0.01199844      -8.27281570
N        6.96297979       6.18095827      12.46500301  F       0.00000000       0.00000000       0.00000000      -0.24658996       0.10289192      -0.22715390      -8.34685612
N        2.47101165       0.83403236      13.81121973  T       0.94097231       0.46674369      -0.22270482      -0.00604898      -0.04693277      -0.03147495      -8.44582748
N        9.12817395       4.71305536      13.87421458  T       0.46881815       0.60687171       0.08837013       0.00596374      -0.01674670       0.00660398      -8.31667900
N        4.38611595       5.24852685      13.88318075  T      -0.57440769       0.29582759       0.20129127      -0.00250915       0.02554084      -0.01478011      -8.48810959
N       11.14076835       1.29659260      13.80469847  T      -0.82186964      -0.10601611      -0.31763852      -0.02555555       0.01248714      -0.00569111      -8.38402653
N        6.42853258       0.95136311      13.81486355  T       0.62692719      -0.27079096      -0.26219092      -0.00695459      -0.02808580      -0.02001316      -8.44491482
N       13.04170096       4.74461822      13.80244999  T       0.34620329      -0.84220546      -0.18740871       0.00426532      -0.01740283       0.04982743      -8.21402740
N        4.43837357       7.43354893      12.46500301  F       0.00000000       0.00000000       0.00000000      -0.12063853       0.06067840       0.31889331      -8.93198776
N       11.10227701       3.61431417      15.15443697  T      -0.00704905       0.02045902       0.31441417      -0.02344955      -0.06170520       0.02136409      -8.77274418
N        2.24078918       3.59558959      13.83169001  T       0.00157478       0.06966320      -0.26265861      -0.02248260       0.02728211       0.00092161      -8.98336124
N        8.87520053       7.43326676      13.82403441  T       0.24325266      -0.24764229      -0.06209661       0.01058101      -0.03004361      -0.01366418      -9.04894352
N        4.26084566       2.55872869      12.46500301  F       0.00000000       0.00000000       0.00000000      -0.06959313      -0.50489116      -0.64812994      -8.52079773
N       10.91840553       6.40247297       9.71681404  F       0.00000000       0.00000000       0.00000000      -1.79187632      -0.20263951       0.76109636      -7.58555126
N        2.09129524       5.87347078       9.71681404  F       0.00000000       0.00000000       0.00000000       0.40260088      -2.36203551       0.90176415      -7.44734144
N        8.74885559       2.02972674      12.46500301  F       0.00000000       0.00000000       0.00000000       0.80485809      -0.09970367      -0.79400432      -8.61894798
N        0.30541945       2.33721423      12.46500301  F       0.00000000       0.00000000       0.00000000      -0.57132792       0.49595827      -0.49054092      -8.41801643
N        6.96297979       6.18095827       9.71681404  F       0.00000000       0.00000000       0.00000000       1.63003087       0.93676513       0.48392743      -7.35648108
N        2.39671469       0.77713639      11.09090900  F       0.00000000       0.00000000       0.00000000       2.16201448       2.30442667       1.89718223      -5.72656107
N        9.05427456       4.62088060      11.09090900  F       0.00000000       0.00000000       0.00000000       0.40866607       0.26232079      -0.87205207      -8.84311104
N        4.56626511       5.14988232      11.09090900  F       0.00000000       0.00000000       0.00000000      -0.57517070      -0.43287632      -0.29397339      -8.52154255
N       11.22382545       1.30613840      11.09090900  F       0.00000000       0.00000000       0.00000000      -0.57514763       1.64655125       0.43445408      -7.67826223
N        6.35214090       0.99865079      11.09090900  F       0.00000000       0.00000000       0.00000000      -1.17938566      -0.34004349       1.57923460      -6.76377583
N       13.00970078       4.84239483      11.09090900  F       0.00000000       0.00000000       0.00000000      -0.02850769      -1.25031400      -0.74957615      -8.85569382
N        4.43837357       7.43354893       9.71681404  F       0.00000000       0.00000000       0.00000000      -0.14017397       0.76832855       0.90554869      -7.69416142
N       11.09593391       3.58980465      12.46500301  F       0.00000000       0.00000000       0.00000000      -0.02808389      -0.16136333      -1.52468252      -9.29441071
N        2.21918678       3.58980465      11.09090900  F       0.00000000       0.00000000       0.00000000      -0.06865349       0.40084514      -0.81448126      -8.86604691
N        8.87674713       7.43354893      11.09090900  F       0.00000000       0.00000000       0.00000000       0.22115567      -0.35284087      -0.97407085      -9.22063255
C       11.09137203       4.02555641      19.29462327  T      -0.30183630      -2.10887174      -2.14438982       0.01069975      -0.02824020       0.00101948      -9.12519360
O       10.31193510       4.75745031      19.92259504  T       1.42774609      -0.67358291      -0.95738198       0.05744255      -0.00516140       0.02044737      -6.21449757
H       11.95915946       3.54879909      19.81685512  T      -0.28827642      -0.05432628       0.21059744      -0.03502709       0.01572856      -0.01897573      -3.51722288
