121
Lattice="11.32190990447998 -0.0 -6.999999919513338e-16 -3.700000002833815e-15 23.034778594970703 -5.66095495223999 -0.0 4.2000001634662394e-15 33.96573257446289" Properties=species:S:1:pos:R:3:move_mask:L:1:momenta:R:3:forces:R:3:energies:R:1 adsorbate_info="_JSON {\"site\": {\"coordinates\": [8.49143314, 14.41948509, 18.08365822], \"connectivity\": 1, \"topology\": [20], \"n_vector\": [0.15849571917356992, 0.36515655571586786, 0.9173547824159294], \"h_vector\": [1.0, 0.0, 0.0], \"site_formula\": {\"Cu\": 1}}, \"smiles\": \"Cl\", \"mdf\": 1.7127647297895932, \"adsorbate_formula\": \"C2H6O\"}" bond_change_count=0 energy=-608.4297485351562 stress="0.0002452089684084058 -9.461520676268265e-06 -1.7449394363211468e-05 -9.461520676268265e-06 4.910605275654234e-05 -9.152417987934314e-06 -1.7449394363211468e-05 -9.152417987934314e-06 7.026036473689601e-05" free_energy=-608.4297485351562 pbc="T T F"
Cu       0.04447302      20.10374464      15.16553664  T       0.20043711       0.43594337       0.81874393      -0.02239415       0.02929988       0.00355083      -3.89470363
Cu      -0.01540943       8.77019021      15.20397189  T      -1.27457271      -0.70556458      -1.14870696      -0.00233991      -0.00123057       0.03470691      -4.22235394
Cu       2.84347982      20.18692488      12.40345097  T       0.96851367      -1.06920030       1.03867426      -0.00568076      -0.00211860      -0.01951905      -4.18850088
Cu       2.76926986       8.88812207      18.00395084  T      -0.20158321      -0.40830495       0.27047854      -0.00842888       0.00170494       0.00816695      -4.27197313
Cu       2.31790864      14.41339899      17.73746663  T      -1.13266299      -1.76335354      -0.65276736       0.05781614      -0.03541805       0.02168885      -3.69739962
Cu       2.90403235       2.87677737      18.24597005  T      -0.79248268       1.22394388       0.33341589      -0.00447888       0.01484338       0.00365745      -4.18453789
Cu      -0.04404291      14.52519342      15.08499173  T       0.90034871       0.39528289      -0.31507004       0.03582715       0.02889282      -0.02734981      -4.17903852
Cu      -0.10551951       2.74159517      20.75899200  T       0.45401871      -0.01191071       0.31312220       0.01373498       0.00466511      -0.01151302      -3.76053667
Cu       0.00000000      20.17817879       9.59222507  F       0.00000000       0.00000000       0.00000000       0.00338190      -0.00231079       0.13612512      -4.22934055
Cu       0.00000000       8.66078949       9.59222507  F       0.00000000       0.00000000       0.00000000      -0.01059137      -0.00639936       0.65526384      -2.35238695
Cu       2.83047748      20.17817879       6.76174784  F       0.00000000       0.00000000       0.00000000      -0.00673539      -0.00094929       0.62629277      -3.45400119
Cu       2.81380299       8.64551802      12.41830024  T       0.29771940      -0.19865855       2.07622363      -0.01231178      -0.00415572      -0.00027760      -4.24158955
Cu       2.84366398      14.45004898      12.32779201  T       0.40885277      -0.23042368       0.66153464       0.03466265       0.01785880      -0.02684601      -4.23752213
Cu       2.47085326       3.37220547      12.79989263  T      -1.74255601       0.82499143      -0.23284081      -0.00755055       0.01192790       0.01015139      -3.70115614
Cu       0.00000000      14.41948509       9.59222507  F       0.00000000       0.00000000       0.00000000       0.00401550       0.30331039       0.15003659      -3.67890811
Cu       0.04732517       2.95114525      15.39601266  T      -0.17526290      -1.13067803       0.50523072      -0.00003344      -0.00273907       0.00261403      -4.21926785
Cu       5.69913581      20.11404757      15.16618300  T      -1.64052417      -0.54251353       0.55985405       0.00445711       0.02255139       0.00539564      -3.90242815
Cu       5.58314383       8.60079630      15.17361439  T       0.89805422      -0.75250141      -0.00889823      -0.00101218       0.01046815       0.02013886      -4.23293114
Cu       8.49910966      20.17823719      12.40734581  T      -0.81168258      -0.85560832       0.38240828       0.00459602       0.00220419      -0.01843928      -4.18858910
Cu       8.44472222       8.77236762      18.00181308  T       1.79227396       1.00294426      -0.24067444      -0.00307661       0.00047623      -0.00698070      -4.27071285
Cu       8.98351532      14.96347897      17.77897781  T      -4.26088794      -3.24221237      -0.77097279      -0.01611673      -0.04079627      -0.03696194      -3.85772395
Cu       8.55696074       2.87946718      18.24771589  T       0.70239225      -0.75311510       1.52436359       0.00223762       0.02037324       0.00644737      -4.18429375
Cu       5.61644778      14.50857026      15.23340488  T       0.64597426      -0.33569648       1.27718038       0.03589562       0.01742806       0.01462384      -4.20910072
Cu       5.55402130       2.73472165      20.76020798  T       0.26467151      -0.19925699      -0.23303922       0.01612110      -0.00092704      -0.00815398      -3.76174974
Cu       5.66095495      20.17817879       9.59222507  F       0.00000000       0.00000000       0.00000000       0.00564227      -0.00251135       0.13525736      -4.22951221
Cu       5.66095495       8.66078949       9.59222507  F       0.00000000       0.00000000       0.00000000      -0.01123367       0.00014489       0.64798772      -2.34896898
Cu       8.49143314      20.17817879       6.76174784  F       0.00000000       0.00000000       0.00000000      -0.00674229      -0.00094141       0.62648088      -3.45404339
Cu       8.46999643       8.63844097      12.41036254  T      -0.96999039      -0.31881411       1.65128106       0.01793724       0.00364558       0.00556158      -4.23516703
Cu       8.43599398      14.39189566      12.35787916  T      -0.53308811      -1.63599493       0.36850644      -0.00047813      -0.00737553      -0.01915008      -4.22209311
Cu       8.13489341       3.36752157      12.79628947  T      -2.23247127       1.99087385      -0.84351559      -0.00493175       0.02293422       0.00956303      -3.69399500
Cu       5.66095495      14.41948509       9.59222507  F       0.00000000       0.00000000       0.00000000       0.00418353       0.30528325       0.14194161      -3.67923450
Cu       5.70797553       2.95774450      15.39697904  T       0.27903847       1.72534298      -0.48199039      -0.00112013      -0.00750570      -0.00714016      -4.21743965
W        0.00584654      20.17014322      12.37399948  T      -1.07421230       1.17895155       1.23529870       0.03417597       0.01522072       0.00403625     -11.71594334
W       -0.07431174       8.95514494      17.99136085  T       1.08341598       2.96267085       0.74749303       0.01092991      -0.01665670      -0.02208745     -11.52907467
W        2.77170452      14.53955044      15.11917701  T      -0.95055340      -0.33722288       0.62380309      -0.00305627       0.01144379       0.03711943     -11.76173306
W        2.72071706       2.78294850      20.86778692  T       0.37628370      -0.94726044      -2.41612156      -0.00075844       0.00565971      -0.01014584      -9.94410610
W        0.00000000      20.17817879       6.76174784  F       0.00000000       0.00000000       0.00000000       0.03391454      -0.03672428       2.32757664      -7.39209557
W       -0.02159667       8.67246643      12.41765863  T       1.55312550      -1.44275014       2.29879601      -0.00177516      -0.01291745      -0.03562289     -11.74309158
W        2.83047748      14.41948509       9.59222507  F       0.00000000       0.00000000       0.00000000       0.15187995       1.26625514       0.36741042      -9.73950005
W        2.87583124       2.96516812      15.42411115  T       0.17470019       0.21040980       0.55831490       0.00460414      -0.00466174      -0.00866839     -11.76982212
W        5.67052112      20.16476290      12.37417490  T       1.60880143      -0.43433767      -0.50567368       0.04303032       0.04058780       0.00642255     -11.71796989
W        5.61456178       8.76344254      17.97840933  T       0.14983296       1.48319555       1.77863735      -0.01107393      -0.00994685       0.00581777     -11.67479324
W        8.45240659      14.44556383      15.16681586  T       1.23529773      -0.03862797       0.08850520       0.01531118       0.00476342      -0.00840284     -11.53478813
W        8.37956080       2.78973053      20.86877150  T       1.75629390      -1.88903371       1.50930957       0.01363695       0.01693478      -0.00174832      -9.94598961
W        5.66095495      20.17817879       6.76174784  F       0.00000000       0.00000000       0.00000000       0.03396270      -0.03691528       2.32751751      -7.39201069
W        5.64853034       8.65735224      12.41241396  T       1.01777676      -1.16756572       1.08855258      -0.01939949      -0.00720815      -0.02350986     -11.75085163
W        8.49143314      14.41948509       9.59222507  F       0.00000000       0.00000000       0.00000000       0.11320929       1.22679448       0.36620057      -9.73592091
W        8.53605667       2.96493095      15.42483763  T      -1.81294573       0.45636835      -1.11089247       0.00336928       0.00162271      -0.00617354     -11.77573395
Se       3.76865814      19.31565510      16.47178802  T       0.97148914       1.45501022      -1.69581688       0.03563680      -0.03989258       0.01375741      -3.24981642
Se       4.22477907       7.29881485      16.72051114  T      -0.19350503       0.79673729       1.31288569       0.00281084       0.02149258       0.02540811      -4.31449795
Se       1.33836028      18.70208313      13.68426482  T      -1.52698582       0.85717425       1.00248847      -0.01046471      -0.02673990      -0.01087415      -4.38138819
Se       1.21826090       7.67461589      19.45653943  T      -2.40273099       1.23846119      -0.10935154      -0.01583296       0.02024296      -0.03509019      -4.04727316
Se       1.38898612      16.07222465      16.32257240  T       0.61476655      -0.37560535       0.81919058      -0.00386933      -0.01118638       0.05092374      -4.37674332
Se       1.51863291       4.35930650      16.78860217  T       1.42527338       0.90183750      -2.45653787       0.01401796      -0.00205734      -0.01416555      -4.31132984
Se       4.19260308      15.93173804      13.82667105  T      -1.71431255      -0.77507653       1.48575266       0.03560471       0.00412640      -0.01446257      -4.31309414
Se       4.06266642       4.41183288      19.76372800  T       1.44334559      -1.04004106       0.50529585       0.00243463       0.02700892       0.00713119      -4.33120394
Se       1.44225195      13.84988738      19.81751464  T       1.23148063       2.11505016      -1.66603310      -0.00509942       0.00478768       0.03389505      -2.27842474
Se       1.47017580       1.36318159      19.48687278  T       2.01215174       2.10697116       0.40107293      -0.01329318      -0.01742797       0.00531531      -4.43966913
Se       4.04811916      13.18498315      16.60771887  T      -1.17145472       1.30261470       1.44787662      -0.02795580       0.00774173       0.04868858      -4.41609240
Se       4.11361229       1.38481797      22.13396358  T      -1.18797467       1.78627769      -3.09841028      -0.01839638      -0.01253247       0.01825243      -4.04024363
Se       4.34055628      10.24368635      19.27519021  T       1.75869905      -1.69928012       0.30733186       0.01215349       0.00604740      -0.02859607      -4.03007269
Se       4.37006552      21.59851060      13.74736194  T       0.67334230      -0.83615410      -1.54796198      -0.00912094       0.03415080       0.02353845      -4.37080622
Se       1.28523190      10.31413328      16.59690998  T       0.09429500       0.45180610       0.29255060      -0.04236295      -0.03833809       0.03069367      -4.35128927
Se       1.98319093      20.70713832      16.57463268  T       0.39512340      -2.60594580      -0.86105154      -0.04706430       0.02836868      -0.00735849      -3.22008443
Se       4.29427099      18.74556732      11.05601883  F       0.00000000       0.00000000       0.00000000      -0.02259673      -0.03606896       0.03665114      -4.34331703
Se       4.29427099       7.22817707      11.05601883  F       0.00000000       0.00000000       0.00000000       0.26030764       0.17465684      -0.39065951      -4.54109859
Se       1.36668432      18.74556732       8.12843227  F       0.00000000       0.00000000       0.00000000      -0.31628972       0.49139065      -1.68079340      -4.50908899
Se       1.30336743       7.25758814      13.77171557  T      -0.79750081       0.73344302      -0.17039635       0.02719267      -0.00581111       0.01500758      -4.35752916
Se       1.46379328      15.85209751      10.95890999  F       0.00000000       0.00000000       0.00000000       0.58188635      -0.55697644      -0.94870663      -4.43018007
Se       1.46379328       4.33470774      10.95890999  F       0.00000000       0.00000000       0.00000000       0.01772424       0.07099943      -0.01817235      -1.94279015
Se       4.19716167      15.85209751       8.22554111  F       0.00000000       0.00000000       0.00000000      -0.65656137      -1.10360909       0.93811560      -4.03685236
Se       4.19449886       4.41232156      14.06676552  T      -1.02048205      -0.76196983      -0.42246460       0.00091247      -0.01947729       0.03776878      -4.43651247
Se       1.44758582      13.04865143      13.82008474  T      -0.57379283      -0.00967912       0.52127181      -0.00063651      -0.01511542      -0.00720035      -4.32509041
Se       1.54783923       1.55695533      14.02598157  T       0.23112928       0.46062819      -0.25127178      -0.00195722       0.02149203       0.01867440      -4.39743042
Se       4.19716167      12.98687172      10.95890999  F       0.00000000       0.00000000       0.00000000      -0.08847022       0.05028647      -0.56526685      -4.40782070
Se       4.24545152       1.48618068      16.69036438  T      -0.81022103      -0.73648884      -1.93664929      -0.02509861       0.01574320      -0.00874912      -4.33334017
Se       4.29241168      10.10144183      13.72051892  T       0.76501378      -1.66401161      -2.09013512      -0.00593267       0.01596007       0.00845649      -4.33846903
Se       4.29427099      21.61079216       8.12843227  F       0.00000000       0.00000000       0.00000000       0.27413917      -0.43394500      -1.62437177      -4.50037003
Se       1.36668432      10.09340286      11.05601883  F       0.00000000       0.00000000       0.00000000      -0.32970721      -0.28176117      -0.33560628      -4.51220369
Se       1.36668432      21.61079216      11.05601883  F       0.00000000       0.00000000       0.00000000       0.01737335       0.02693064       0.08521814      -4.33599854
Se       9.42758528      19.40073237      16.52326296  T      -1.08553578       0.56247507       0.15919897      -0.02258857       0.00577931       0.00435672      -3.23065162
Se       9.99701998       7.37065729      16.73817618  T       1.17604912       0.18661471       1.30437883       0.03153220       0.04397568       0.01647099      -4.33749485
Se       6.99595783      18.69556161      13.69142134  T      -1.87654821       0.08903032      -0.37206950       0.00490198      -0.03971674       0.00776440      -4.37909698
Se       6.96006538       7.40226722      19.34174513  T      -1.25105533       1.36636812      -0.48576212      -0.01529567       0.00655805      -0.01238269      -4.03300714
Se       7.19902511      15.90588764      16.57475156  T       0.61417545      -0.34177751      -0.19929255       0.00528205       0.04190424       0.05502487      -4.33272648
Se       7.18344352       4.36368799      16.78691011  T      -1.35767586      -0.63236409      -1.11357234       0.01058586       0.00582315      -0.00730783      -4.31002331
Se       9.74667700      15.89291933      13.80616347  T      -1.39403806       0.27229237       0.84854114       0.03927914       0.02363223      -0.05397680      -4.35584927
Se       9.71828105       4.41862384      19.75957454  T       0.18113153      -0.24519210       0.84148899      -0.00396375       0.00591724       0.01478764      -4.33348513
Se       8.56864095      12.37696867      18.56730176  T       0.04866105       0.36916931      -1.77727599       0.04454318       0.00493056       0.00429954      -2.87344122
Se       7.13764252       1.35678904      19.49447569  T       2.11770410       0.77205435       0.92120937      -0.02060683      -0.01919497      -0.00375620      -4.44090891
Se       9.81717921      12.90007296      16.41327825  T       1.51935516       1.38994837      -0.33287277      -0.00674905       0.00487140       0.05505274      -4.21217537
Se       9.77651609       1.40098055      22.14109208  T      -0.97590272       0.59831768      -1.43640048      -0.02164128      -0.00814041       0.01536100      -4.04157639
Se       9.80706974      10.37154285      19.31822352  T       2.19626791      -1.56439136      -0.65830413       0.02274419      -0.03114051      -0.02908158      -4.12262440
Se      10.02266789      21.60052829      13.74630566  T      -1.54561545      -1.04006101      -0.96766369       0.01740688      -0.00637309       0.02534890      -4.37057209
Se       6.96007873      10.10057900      16.53124953  T      -0.66180358      -1.40627875       0.32994730      -0.00765810      -0.01882858       0.03441185      -4.30109596
Se       7.63968458      20.80689919      16.52841645  T       0.30172910      -1.53267664      -0.65000767       0.01574446      -0.02641568      -0.01164997      -3.22756314
Se       9.95522594      18.74556732      11.05601883  F       0.00000000       0.00000000       0.00000000      -0.01661312      -0.02118439       0.05233065      -4.34183073
Se       9.95522594       7.22817707      11.05601883  F       0.00000000       0.00000000       0.00000000       0.33918804       0.22833589      -0.31425485      -4.54200268
Se       7.02763939      18.74556732       8.12843227  F       0.00000000       0.00000000       0.00000000      -0.31648105       0.49127361      -1.68138492      -4.50918341
Se       6.97437666       7.18995704      13.71114865  T       1.33173092       0.92244675      -1.11423946      -0.00263626       0.00730050       0.01968157      -4.35036325
Se       7.12474823      15.85209751      10.95890999  F       0.00000000       0.00000000       0.00000000       0.60191363      -0.62367833      -0.90201974      -4.43905163
Se       7.12474823       4.33470774      10.95890999  F       0.00000000       0.00000000       0.00000000       0.02497433       0.07079746       0.00030509      -1.94588995
Se       9.85811710      15.85209751       8.22554111  F       0.00000000       0.00000000       0.00000000      -0.64033896      -1.09273338       0.92926633      -4.03543568
Se       9.85743434       4.40894001      14.06866993  T       0.16866144      -0.95867274      -0.19512252       0.01137508      -0.00767930       0.01627082      -4.43503857
Se       7.03215710      13.01641539      13.91145211  T       1.66136998       0.30127335       1.41656041      -0.01364803      -0.02157050      -0.08063649      -4.32997704
Se       7.20654183       1.56025183      14.02560896  T       1.60467634      -0.18373830      -1.46276666      -0.01192633       0.00355513       0.01205021      -4.39856911
Se       9.85811710      12.98687172      10.95890999  F       0.00000000       0.00000000       0.00000000      -0.15673831       0.10054629      -0.51077455      -4.40591478
Se       9.90188148       1.48844729      16.69608217  T      -1.03443416       0.07861109      -0.92879288      -0.01392427       0.00109627      -0.01169471      -4.33238316
Se       9.94320159      10.13698477      13.69850189  T       0.16638938      -1.90341904      -1.82382563      -0.02416290       0.01498758       0.00172347      -4.34409618
Se       9.95522594      21.61079216       8.12843227  F       0.00000000       0.00000000       0.00000000       0.27369976      -0.43316972      -1.62464976      -4.50001717
Se       7.02763939      10.09340286      11.05601883  F       0.00000000       0.00000000       0.00000000      -0.32424858      -0.27271700      -0.32800657      -4.51093197
Se       7.02763939      21.61079216      11.05601883  F       0.00000000       0.00000000       0.00000000       0.01781676      -0.00100148       0.10064126      -4.33395481
O       10.26877482      15.60740728      19.05605004  T       2.44770297       1.96699573       1.47857835      -0.02322389      -0.02009594      -0.05831873      -6.70369625
C        9.70389554      16.08711687      20.28684351  T       0.87730474       1.27530777       0.87953020       0.02460566       0.02552241       0.00659001      -9.67889977
C        9.74933823      14.98915753      21.32658522  T       0.57264836       0.44843362       0.08884818      -0.01164676      -0.00415346       0.00438809      -9.28685665
H       11.08636481      15.00706784      19.32845007  T       0.06370079       0.40058800       0.33581111       0.00115335      -0.00557755       0.01571241      -3.55294394
H       10.32154537      16.94589491      20.59243151  T      -0.06697624      -0.01137446       0.30836428       0.03440738       0.02741641       0.04373372      -3.48025060
H        8.67972810      16.42349969      20.06535234  T       0.01181806       0.09137157       0.15127428      -0.01040721       0.01407751       0.02837002      -3.50647116
H       10.76905562      14.57422551      21.38480417  T       0.14697025      -0.02814865       0.11038617      -0.02717246      -0.00526392       0.02210718      -3.71473503
H        9.06380470      14.17732706      21.04522205  T      -0.11169836       0.06882703      -0.05802853       0.02057932      -0.03294972       0.00318706      -3.66601658
H        9.46120204      15.41030855      22.29941016  T      -0.01861284       0.10628221       0.17850648      -0.02875939      -0.02408999       0.02417383      -3.63809562
