75
Lattice="8.208702087402344 0.0 -0.6319061517715454 -3.009857416152954 14.187996864318848 -0.7898827195167542 0.0 0.0 30.647449493408203" Properties=species:S:1:pos:R:3:move_mask:L:1:momenta:R:3:forces:R:3:energies:R:1 adsorbate_info="_JSON {\"site\": {\"coordinates\": [2.27449465, 7.09399843, 18.53262329], \"connectivity\": 1, \"topology\": [35], \"n_vector\": [0.24174495508607088, 0.0009068356584718334, 0.9703394016216811], \"h_vector\": [1.0, 0.0, 0.0], \"site_formula\": {\"N\": 1}}, \"smiles\": \"Cl\", \"mdf\": 1.7242956658375332, \"adsorbate_formula\": \"HNO\"}" bond_change_count=0 energy=-556.9402465820312 stress="0.0003894395485986024 1.4737771607542527e-06 -1.8739632650977e-05 1.4737771607542527e-06 0.00021149325766600668 -1.1389678320483654e-06 -1.8739632650977e-05 -1.1389678320483654e-06 0.00020645301265176386" free_energy=-556.9402465820312 pbc="T T F"
In       4.09865046       3.54699922      11.58165550  F       0.00000000       0.00000000       0.00000000       0.00320962      -0.03111663      -0.41295415      -2.29201174
In       7.10850811       3.54699922      12.37153816  F       0.00000000       0.00000000       0.00000000      -0.37717050      -0.01350859      -0.11851308      -3.17210269
In       1.08879316       3.54699922      10.79177284  F       0.00000000       0.00000000       0.00000000       0.11662896      -0.01293351      -0.72596890      -2.19111037
In       2.36570239      10.64099789      12.05558491  F       0.00000000       0.00000000       0.00000000       0.00062957       0.08703370      -0.46401951      -3.12688160
In       4.55468941      10.64099789       9.84391308  F       0.00000000       0.00000000       0.00000000      -0.33485031       0.03771191      -1.00221848      -2.05398393
In      -0.64415509      10.64099789      11.26570225  F       0.00000000       0.00000000       0.00000000       0.28243223       0.02839456      -0.53751051      -2.69797969
In       4.88950294       3.53715354      14.75888965  T       1.46861582       2.21730669       2.71186081       0.00402255       0.03145948       0.02105531      -3.21846867
In      -0.39683709       3.54984211      16.11553604  T      -0.40188547       0.21436894      -0.83578338      -0.03513014      -0.06192732       0.01020978      -3.15082097
In       1.87860418       3.55504058      14.07923161  T       1.04784756       2.08378781       1.10455769      -0.00034911      -0.01872149       0.00728548      -3.17684460
In       3.21143684      10.64182027      15.00839218  T      -0.71282804      -0.70969671      -1.38464750      -0.00156480      -0.00224727      -0.00416736      -3.15989017
In       5.37555981      10.64099789      12.84546757  F       0.00000000       0.00000000       0.00000000       0.15212598       0.12071136       0.18127224      -3.17637539
In       0.19763657      10.61099251      14.27628526  T      -1.17716931      -1.48778465      -0.02141399       0.01643700       0.02325274       0.03946425      -3.16728592
In       5.61238924       3.65026326      17.98664231  T      -0.02809959       0.62315816       1.46942415      -0.00084086      -0.02342120      -0.03819288      -2.83481550
In       0.61629658       3.39861695      19.45700889  T       0.04743208      -0.89068584       1.90835699       0.00991328      -0.00110862      -0.00300808      -2.23656869
In       2.70132271       3.52291347      17.13455565  T       1.73667082       0.68485800       0.17364392       0.00160120      -0.01056319      -0.01291346      -3.07989693
In       4.23351635      10.54566416      18.38859570  T       2.59555357      -2.89809130       2.11818309      -0.01920094       0.04180043       0.02460057      -2.29522133
In      -1.94837937      10.63682431      16.47661955  T       0.58880116      -0.04081694       0.33975863      -0.03263119       0.01819238      -0.01016509      -3.16116571
In       0.99230357      10.64200996      17.56746587  T      -0.18034990      -2.10845020       1.14324719       0.02246959      -0.01594772      -0.00790109      -2.46668124
N        3.64692980       0.00193962      13.25973085  T       0.25426706      -0.20495144      -0.68471481      -0.00125338      -0.01985996      -0.01229754     -11.82796097
N        5.83159876       0.00000000      11.10772610  F       0.00000000       0.00000000       0.00000000       0.48855966       0.04565340       1.47296107      -9.57040310
N        0.63275415       0.00000000      12.52951431  F       0.00000000       0.00000000       0.00000000      -0.22643267      -0.20037779      -0.86922914     -11.83473206
N        2.82174134       7.09399843      10.31784344  F       0.00000000       0.00000000       0.00000000      -1.47341454       1.56733453       3.78442144      -8.03313732
N        5.83159876       7.09399843      11.10772610  F       0.00000000       0.00000000       0.00000000       0.73923159       0.00644002       1.73517418      -9.43400764
N        0.63275415       7.09399843      12.52951431  F       0.00000000       0.00000000       0.00000000      -0.33914241      -0.09100224      -1.05551577     -11.76535320
N        4.45366057      -0.04970910      16.22632752  T       0.21266856      -0.13703655       0.11171056      -0.03562276      -0.00139031       0.01278676     -11.55942154
N        6.65648731       0.00752989      14.07022854  T       0.10297149       0.07778012      -0.07713594      -0.02806492      -0.03258813       0.01575332     -11.66500473
N        1.43661587       0.02864299      15.46009300  T       0.10067544      -0.11614706      -0.09813118      -0.02641545      -0.00691723      -0.02975635     -11.59495163
N        3.65855678       7.08348401      13.26745517  T       0.00508009      -0.20320599      -0.56173031       0.01344731      -0.02707572      -0.02899490     -11.68389320
N        6.65992402       7.07688286      14.07015575  T       0.05995580       0.17318885      -0.33597680       0.00551462       0.01638041      -0.01449013     -11.66302681
N        1.47030537       7.11041829      15.41498003  T       0.03015543      -0.03191011      -0.20702076       0.00140078      -0.06158374       0.01017920     -11.53052998
N        5.35491416       0.10812122      18.88379880  T       1.23095957       2.37448998      -3.54651926       0.02346419       0.01358309      -0.02269148      -8.77773285
N        7.48393978      -0.00994646      17.03580676  T       0.31309064      -0.46161907       0.80215381       0.00121485       0.03781924      -0.01251605     -11.72190475
N        2.23161756       0.00945255      18.21994661  T      -0.52212622      -0.03278480      -1.99961885       0.00045965       0.01801940       0.02050756      -9.90786076
N        4.46311430       7.16354950      16.22441884  T      -0.14250407       0.06165989       0.49564578      -0.02137293       0.02677182      -0.02196690     -11.71702099
N       -0.64619161       6.96222250      17.62716866  T       0.13258317       0.02934453       0.42644993       0.02576973       0.03250220      -0.08525041     -11.06055450
N        2.29987937       7.14547862      18.17238697  T       0.66995949       0.99313733      -3.08079723      -0.03061338      -0.02355263      -0.01007518      -9.82186508
Ti       4.09865046       8.21739006      11.58165550  F       0.00000000       0.00000000       0.00000000      -0.13720211      -2.30992365      -1.59203744      -8.50110245
Ti      -1.10019410       8.21739006      13.00344467  F       0.00000000       0.00000000       0.00000000      -0.19579309      -0.52116203      -0.64468479      -8.39311409
Ti       1.08879316       8.21739006      10.79177284  F       0.00000000       0.00000000       0.00000000       1.98555660      -1.37506783       0.24183805      -7.37388325
Ti       2.36570239       5.97060633      12.05558491  F       0.00000000       0.00000000       0.00000000       0.16253009       1.18596601      -1.38992703      -8.40668297
Ti       5.37555981       5.97060633      12.84546757  F       0.00000000       0.00000000       0.00000000       0.27728927       0.44637203      -0.77714425      -8.38579941
Ti      -0.64415509       5.97060633      11.26570225  F       0.00000000       0.00000000       0.00000000      -0.92408681       1.18432260       1.24973643      -7.28973007
Ti       2.36570239       1.12339199      12.05558491  F       0.00000000       0.00000000       0.00000000      -0.43230340      -0.46069741       0.53851068      -7.68024111
Ti       5.37555981       1.12339199      12.84546757  F       0.00000000       0.00000000       0.00000000       0.22752312      -0.45483667      -0.72493052      -8.38174343
Ti       7.56454706       1.12339199      10.63379574  F       0.00000000       0.00000000       0.00000000      -0.84923118      -1.23115814       1.17223763      -7.30393934
Ti       4.09865046      13.06460476      11.58165550  F       0.00000000       0.00000000       0.00000000       0.00757374       0.48728397      -0.67296815      -8.38670063
Ti      -1.92106426      13.06460476      10.00189018  F       0.00000000       0.00000000       0.00000000       0.29501033       0.45152602       1.42785609      -6.50059843
Ti       1.08879316      13.06460476      10.79177284  F       0.00000000       0.00000000       0.00000000       0.80392849       0.89574635       0.19698833      -7.40357494
Ti       4.93672521       8.22155005      14.49663430  T      -0.44534869      -0.41083611      -0.69044028       0.02130818       0.01049314       0.01202901      -8.23912048
Ti      -0.26553366       8.18388471      15.94380218  T      -0.11396162      -1.00461253       0.10143992       0.01790071       0.03337050      -0.00644387      -8.19475937
Ti       1.92610648       8.21350745      13.68456829  T      -0.29718217       0.02228050      -1.06312157      -0.00104041      -0.00003064       0.00197423      -8.26371193
Ti       3.21363896       5.99512554      15.00324570  T       0.13042994       1.01138147      -0.05219099      -0.01468480      -0.00080378       0.00807625      -8.16886616
Ti       6.18209134       5.96722185      15.80163400  T       1.27651339       1.59702273       0.99509034      -0.03519042      -0.01784806       0.00076589      -8.23836136
Ti       0.16761182       5.96745761      14.18626346  T      -0.60261723      -0.15132831      -0.29043248      -0.00003371       0.01115657      -0.01526479      -8.24136162
Ti       3.19538061       1.10884286      14.98943826  T       0.61318486      -0.80071099      -0.53974654       0.01099166      -0.01411370      -0.00532067      -8.18909931
Ti       6.17268517       1.10599605      15.79384358  T       0.26149483      -1.10736909       0.17895842       0.04431533      -0.00714608       0.01212371      -8.13836861
Ti       0.16446178       1.12084619      14.17821703  T       0.03552709      -0.49960155      -1.11034402      -0.00743379      -0.02012922       0.00496678      -8.26902390
Ti       4.92510307      13.06983580      14.53201595  T      -0.04923496       0.49540517       0.34274994      -0.01031021       0.00208370      -0.01499911      -8.17683983
Ti      -1.10019410      13.06460476      13.00344467  F       0.00000000       0.00000000       0.00000000       0.00982308       0.14238565      -0.90213442      -8.27593422
Ti       1.90668032      13.06096657      13.68981059  T      -0.11369547       0.37546092      -0.49188108      -0.01122038       0.01996003       0.03210442      -8.23700237
Ti       5.88706524       8.27044345      17.34223844  T       0.27449494      -0.38359694      -1.53019292      -0.00939078      -0.00138280       0.07479297      -8.31630898
Ti       0.64116056       7.96667357      18.88330707  T       1.95512858      -0.43375526      -2.38834775      -0.02174994      -0.04013318       0.04412799      -8.80797482
Ti       2.73786786       8.29782126      16.61757939  T      -0.37725591      -0.46831000       0.13554670      -0.03231769      -0.00797746      -0.03225131      -8.49095249
Ti       3.92006882       6.07944650      17.81620663  T      -0.02708631       1.37243638      -1.47754597      -0.04463767       0.02136142      -0.02943280      -7.51522064
Ti      -1.22532267       6.24734413      19.49966652  T      -0.09854795       1.81711061      -0.76723639      -0.03124364      -0.02455789      -0.00901136      -8.39055824
Ti       1.02810421       5.92912759      17.06786476  T      -0.28307845       0.58814030       0.80446816       0.04383273       0.05577836       0.04925737      -8.34497452
Ti       3.94893524       0.99114193      17.92836453  T      -0.73965406      -2.97122423       0.37691528      -0.00660874      -0.01941003      -0.02819814      -8.33744526
Ti       6.89885260       1.11047308      18.58202525  T      -1.11191511      -1.16831742      -0.96666805      -0.03520583       0.01519355      -0.00559667      -7.67120743
Ti       0.95372038       1.17277379      17.12899278  T      -0.05755387      -1.01169554      -0.61086198      -0.01944290       0.02834925       0.00919713      -8.40455627
Ti      -2.34687916      13.11202681      17.89960811  T       1.71597840       1.78108284      -1.90935336       0.01296026      -0.01787395       0.01647563      -7.52166367
Ti      -0.30547923      13.03194920      15.83176984  T       0.26725302       0.21034198      -0.87070491      -0.01269457      -0.01435046       0.03270524      -8.36922836
Ti       2.75279459      13.00527663      16.61275234  T       0.20092923       0.63435016       0.09855021      -0.01116533       0.04834004       0.01620473      -8.43929195
N        0.44566946       6.52268791      20.19026970  T      -1.78170394      -1.46016102       1.69396609       0.05066098      -0.01506826      -0.00198450      -8.49017811
O       -1.45099413       8.14499573      19.67421322  T      -0.39331657       0.00046237      -0.29663158      -0.05318353       0.01401435      -0.06967039      -7.58713198
H        1.06185462       6.23373537      20.95024799  T       0.23982087       0.75542495      -0.09029918       0.00050503       0.00274928      -0.05532319      -3.78635716
