75
Lattice="8.208702087402344 0.0 -0.6319061517715454 -3.009857416152954 14.187996864318848 -0.7898827195167542 0.0 0.0 30.647449493408203" Properties=species:S:1:pos:R:3:move_mask:L:1:momenta:R:3:forces:R:3:energies:R:1 adsorbate_info="_JSON {\"site\": {\"coordinates\": [0.54154634, 3.54699922, 19.00655365], \"connectivity\": 1, \"topology\": [13], \"n_vector\": [0.13167348587825295, -0.0989302425909398, 0.9863442098058707], \"h_vector\": [1.0, 0.0, 0.0], \"site_formula\": {\"In\": 1}}, \"smiles\": \"Cl\", \"mdf\": 1.724295665837533, \"adsorbate_formula\": \"HNO\"}" bond_change_count=0 energy=-554.00146484375 stress="0.00040715953218750656 1.0562473107711412e-05 -2.990420034620911e-05 1.0562473107711412e-05 0.00019755451648961753 -2.0024906916660257e-05 -2.990420034620911e-05 -2.0024906916660257e-05 0.00019103319209534675" free_energy=-554.00146484375 pbc="T T F"
In       4.09865046       3.54699922      11.58165550  F       0.00000000       0.00000000       0.00000000      -0.03675873      -0.03231186      -0.48755628      -2.27215004
In       7.10850811       3.54699922      12.37153816  F       0.00000000       0.00000000       0.00000000      -0.34395948      -0.01552206      -0.07538682      -3.18089175
In       1.08879316       3.54699922      10.79177284  F       0.00000000       0.00000000       0.00000000       0.12378988      -0.01451113      -0.66213572      -2.21001744
In       2.36570239      10.64099789      12.05558491  F       0.00000000       0.00000000       0.00000000      -0.00140614       0.02329069      -0.40376869      -3.13171887
In       4.55468941      10.64099789       9.84391308  F       0.00000000       0.00000000       0.00000000      -0.33276618       0.03322580      -1.00552750      -2.05396342
In      -0.64415509      10.64099789      11.26570225  F       0.00000000       0.00000000       0.00000000       0.28494653       0.02551229      -0.53175664      -2.69891715
In       4.86478566       3.53724058      14.69657994  T       0.38424657      -1.19495947       2.77611849      -0.03147922       0.01624460       0.02579190      -3.20583105
In      -0.39100641       3.53851317      16.16122502  T       0.34436898      -1.40457473      -0.57065523      -0.00713669       0.02807954      -0.03298393      -3.16726470
In       1.86096522       3.53847550      14.12871797  T       0.38782673      -1.18277880       4.87159042       0.02900531       0.01480470      -0.04424065      -3.17498636
In       3.20559670      10.61488229      15.03425734  T      -1.73847388       1.13376190      -1.23006680      -0.01808851       0.05235522       0.01261078      -3.15764189
In       5.37555981      10.64099789      12.84546757  F       0.00000000       0.00000000       0.00000000       0.14125471       0.09903105       0.20607449      -3.17879844
In       0.19532812      10.60943875      14.28449137  T       1.87097887      -1.39454218       0.21022179       0.00515853       0.01047021      -0.01643501      -3.17096734
In       5.56362264       3.55103655      17.65966871  T      -1.84613478       0.47462188       1.64518593      -0.00875952       0.09067889       0.02601479      -3.06703281
In       0.40403527       3.94097406      19.66138533  T       1.11197386      -5.59049199      -5.65467925      -0.01438691       0.01775323      -0.02584074      -2.53351641
In       2.61879373       3.54958352      17.27167043  T      -0.01607495      -0.64920722      -0.59993678      -0.03082582       0.03818339       0.02487949      -3.01240134
In       4.22313292      10.44407407      18.44137180  T       0.85051269       1.68337688       2.77197830      -0.00203015       0.01086638      -0.02433045      -2.25345874
In      -1.97239979      10.63559209      16.50490901  T       1.61219944       1.10170917      -0.37948983       0.00393235       0.02959335      -0.00405787      -3.15020442
In       1.03250612      10.71738068      17.55339100  T      -0.47415703       0.93609090      -0.27779385      -0.00079289       0.00854270      -0.00592101      -2.45820999
N        3.64765504      -0.00534852      13.25577924  T       0.09562475      -0.30410621      -0.56979295       0.01917819      -0.00679415      -0.02647284     -11.82689857
N        5.83159876       0.00000000      11.10772610  F       0.00000000       0.00000000       0.00000000       0.48921788       0.03869269       1.47094369      -9.56762218
N        0.63275415       0.00000000      12.52951431  F       0.00000000       0.00000000       0.00000000      -0.22646281      -0.21663283      -0.89014012     -11.83279800
N        2.82174134       7.09399843      10.31784344  F       0.00000000       0.00000000       0.00000000      -1.47105443       1.56521404       3.79415798      -8.04015636
N        5.83159876       7.09399843      11.10772610  F       0.00000000       0.00000000       0.00000000       0.72929865       0.01103288       1.73143339      -9.43528652
N        0.63275415       7.09399843      12.52951431  F       0.00000000       0.00000000       0.00000000      -0.35080037      -0.12770763      -1.01174152     -11.77062607
N        4.44738726      -0.05188578      16.22034086  T      -0.14124430      -0.05438995       0.12515368      -0.01588506      -0.04067881      -0.02012089     -11.58596802
N        6.64699331      -0.01049994      14.07194597  T      -0.21510968       0.03775930       0.24646441       0.00278573       0.03784393      -0.02295366     -11.67611313
N        1.43329764       0.01247651      15.44589274  T      -0.16298759       0.20126671      -0.26290607      -0.05471003      -0.02399180       0.02176598     -11.62529373
N        3.65183307       7.07222899      13.27641112  T       0.11260224       0.19512744      -0.24436496       0.01434102       0.02722275      -0.07094044     -11.68204784
N        6.65551755       7.09117261      14.06743623  T       0.00422359      -0.36668924      -0.30218885      -0.02461491      -0.02389490       0.04447970     -11.66142082
N        1.44371445       7.08217032      15.44756771  T       0.16653780       0.04884882      -0.24924329       0.05401149       0.01834827       0.01041422     -11.51812744
N        5.39328244       0.17877942      18.87517978  T       1.34640264       1.81557282      -3.27635119       0.01101523       0.00338602      -0.01347472      -8.75686741
N        7.49603039       0.01262757      17.03531173  T       0.01275918      -0.21545824       0.47732002       0.00746169       0.00739671       0.00643852     -11.69734764
N        2.22998484       0.03112743      18.22332917  T      -0.45485999      -0.09842183      -1.67421469      -0.00554073       0.00780327      -0.01368602      -9.88512707
N        4.42195200       7.14336296      16.22355595  T      -0.15462556      -0.00152905       0.12552836      -0.03072578       0.04089634      -0.05735009     -11.73077488
N       -0.68364088       7.11073381      17.63890436  T       0.45390814       0.14682937       0.34637607      -0.03883240      -0.04859415       0.03982097     -11.81599236
N        2.19649265       7.08576043      18.25748448  T      -1.10970944       0.01660617      -1.77299836      -0.02257729       0.00561475      -0.02637132      -9.90673542
Ti       4.09865046       8.21739006      11.58165550  F       0.00000000       0.00000000       0.00000000      -0.15860453      -2.35682321      -1.51859045      -8.48156738
Ti      -1.10019410       8.21739006      13.00344467  F       0.00000000       0.00000000       0.00000000      -0.19351409      -0.50867367      -0.66052008      -8.39699364
Ti       1.08879316       8.21739006      10.79177284  F       0.00000000       0.00000000       0.00000000       1.98172474      -1.39068401       0.27260584      -7.36203671
Ti       2.36570239       5.97060633      12.05558491  F       0.00000000       0.00000000       0.00000000       0.12176100       1.18314576      -1.38583803      -8.40775013
Ti       5.37555981       5.97060633      12.84546757  F       0.00000000       0.00000000       0.00000000       0.25126117       0.45997214      -0.77819717      -8.37949753
Ti      -0.64415509       5.97060633      11.26570225  F       0.00000000       0.00000000       0.00000000      -0.91580182       1.19377136       1.26617312      -7.28231525
Ti       2.36570239       1.12339199      12.05558491  F       0.00000000       0.00000000       0.00000000      -0.44539440      -0.47828087       0.51384914      -7.68017292
Ti       5.37555981       1.12339199      12.84546757  F       0.00000000       0.00000000       0.00000000       0.22247440      -0.49587372      -0.72168344      -8.37885857
Ti       7.56454706       1.12339199      10.63379574  F       0.00000000       0.00000000       0.00000000      -0.85906005      -1.22231960       1.16973245      -7.30648327
Ti       4.09865046      13.06460476      11.58165550  F       0.00000000       0.00000000       0.00000000      -0.00828670       0.44571617      -0.71025670      -8.38493156
Ti      -1.92106426      13.06460476      10.00189018  F       0.00000000       0.00000000       0.00000000       0.29569626       0.45231816       1.42855787      -6.49683189
Ti       1.08879316      13.06460476      10.79177284  F       0.00000000       0.00000000       0.00000000       0.80986762       0.87453061       0.16275077      -7.40516758
Ti       4.92407374       8.21699563      14.49796622  T      -0.13818033      -1.23155205      -0.77383785      -0.01224687      -0.00019278      -0.00247922      -8.21910191
Ti      -0.26333085       8.20410421      15.94302299  T      -0.97724145      -0.69676479      -0.10510949       0.00119950       0.02832377      -0.02355084      -8.18739510
Ti       1.91790456       8.19765472      13.70687170  T      -0.49366678      -0.32429827       0.15347140      -0.00482435       0.01911315      -0.00881909      -8.24135590
Ti       3.19104394       5.98488330      15.00920994  T       0.73892579      -0.23628019      -0.08448043      -0.04530622      -0.00633401      -0.00662033      -8.22322273
Ti       6.15429310       5.98953256      15.80402400  T      -0.33280569       1.48645155       0.72797878      -0.01224964      -0.03502540      -0.02828778      -8.21937656
Ti       0.15732085       5.96794637      14.19216056  T       0.85206669       0.83743763      -0.58364615       0.01362966      -0.00658172      -0.01422291      -8.24155998
Ti       3.19262639       1.09496286      14.97897325  T       0.59147456      -1.37796565      -1.10873616       0.03411239       0.05556890      -0.01008235      -8.18059540
Ti       6.16804681       1.10366599      15.77827895  T       0.28404342      -0.77481512       1.49178009       0.03025316       0.02313167       0.02129738      -8.14683342
Ti       0.15088901       1.11278154      14.17589648  T      -0.52406939      -0.65338640      -0.13298939       0.00532218       0.00462063       0.00914380      -8.25567627
Ti       4.91340144      13.05823753      14.54143007  T       0.22126177       0.65482543      -0.10456289       0.04138983      -0.00118102      -0.02564736      -8.17051125
Ti      -1.10019410      13.06460476      13.00344467  F       0.00000000       0.00000000       0.00000000      -0.00125676       0.02207246      -0.99016339      -8.28362751
Ti       1.90181116      13.04854270      13.69329985  T      -0.24919364      -0.18034427      -0.60984302      -0.01131525       0.01133344       0.02139236      -8.24737930
Ti       5.78345379       8.23081986      17.31146323  T      -0.48651263      -0.76496155      -1.41982559      -0.04883099       0.03505246      -0.04988771      -7.61410046
Ti       0.64074600       8.06417714      18.77639770  T       1.11191270      -1.89374346      -3.00923271       0.02684228       0.00386599      -0.03891302      -7.60477066
Ti       2.68816391       8.25187694      16.66633874  T      -0.60909079      -1.00425969       0.26516398       0.02201040       0.00948160      -0.04575988      -8.41620159
Ti       3.98073271       6.05521247      17.98721753  T      -0.98165154       1.23648993      -1.24215319       0.02795464      -0.00473113       0.03103486      -8.71723747
Ti      -1.50134786       5.93566090      19.22622394  T      -0.29449843      -1.60958771       1.71557191      -0.00472975      -0.05015767       0.05445004      -7.86265039
Ti       0.94900236       5.94044655      17.14072749  T      -0.84298871       0.68369231      -0.73845082      -0.03001305      -0.06507358      -0.04100684      -8.47541332
Ti       3.94993292       1.00676453      17.89321443  T      -0.61618286      -3.73764840       0.74017152      -0.00976177       0.03659238       0.03940204      -8.30006313
Ti       6.91858190       1.18183919      18.55744375  T      -1.02923079      -2.51400574      -1.45234236      -0.04399099      -0.04167899       0.02710441      -7.72285986
Ti       0.96505047       1.15905072      17.07701553  T      -0.79095254      -0.63561573       0.94156084      -0.01553343       0.00055581       0.01836599      -8.30708122
Ti      -2.33519341      13.12414574      17.89851067  T       1.66048195       2.32673819      -2.46242863      -0.02025659       0.01882019       0.03331709      -7.50428486
Ti      -0.31048838      13.02365993      15.83956584  T      -1.15023413       0.68451144      -0.17753347       0.01580128       0.00552584       0.00306560      -8.36613178
Ti       2.75875474      13.04218049      16.61557098  T      -0.47249919       1.62209673       0.52752516       0.04745376      -0.03971746       0.02659438      -8.42019176
N       -2.17009723       5.73068864      21.00118755  T      -0.03979022       4.90952414       5.17375504       0.02544966       0.02504938      -0.01639897      -7.97059679
O       -3.24124239       5.75667538      20.20637346  T      -1.26272987       3.22497588      -0.74916899       0.00799191       0.05152032      -0.01666129      -5.65699768
H       -2.41641757       5.59486853      21.97323180  T      -0.44624616      -0.30423904       0.11886928       0.01297817       0.03180278       0.05311590      -3.39030600
