75
Lattice="8.208702087402344 0.0 -0.6319061517715454 -3.009857416152954 14.187996864318848 -0.7898827195167542 0.0 0.0 30.647449493408203" Properties=species:S:1:pos:R:3:move_mask:L:1:momenta:R:3:forces:R:3:energies:R:1 adsorbate_info="_JSON {\"site\": {\"coordinates\": [-0.3249277499999998, 7.0939981949999975, 19.243517875000006], \"connectivity\": 2, \"topology\": [61, 64], \"n_vector\": [0.3129047674712953, -0.08216555977252712, 0.9462237723081163], \"h_vector\": [-0.602395573061466, -0.7810115664154066, 0.16474376067487587], \"site_formula\": {\"Ti\": 2}}, \"smiles\": \"S1S\", \"mdf\": 0.36780750460140704, \"adsorbate_formula\": \"HNO\"}" bond_change_count=0 energy=-554.0899658203125 stress="0.000412037770729512 6.432655368371343e-07 -2.7769887310569175e-05 6.432655368371343e-07 0.00020566863531712443 -9.517204944131663e-07 -2.7769887310569175e-05 -9.517204944131663e-07 0.00020630516519304365" free_energy=-554.0899658203125 pbc="T T F"
In       4.09865046       3.54699922      11.58165550  F       0.00000000       0.00000000       0.00000000      -0.00404308      -0.03302755      -0.37368894      -2.30561709
In       7.10850811       3.54699922      12.37153816  F       0.00000000       0.00000000       0.00000000      -0.38484094      -0.00906932      -0.08471924      -3.17617416
In       1.08879316       3.54699922      10.79177284  F       0.00000000       0.00000000       0.00000000       0.11797585      -0.01529781      -0.73536038      -2.18758535
In       2.36570239      10.64099789      12.05558491  F       0.00000000       0.00000000       0.00000000      -0.00155169       0.06602918      -0.42443386      -3.13091469
In       4.55468941      10.64099789       9.84391308  F       0.00000000       0.00000000       0.00000000      -0.33531186       0.03816329      -1.00639105      -2.05194306
In      -0.64415509      10.64099789      11.26570225  F       0.00000000       0.00000000       0.00000000       0.28892648       0.02662727      -0.51802158      -2.70280790
In       4.88461027       3.54634124      14.77196959  T      -0.29350440      -2.27314693       0.50131044      -0.00399914      -0.00903312      -0.02233844      -3.22076416
In      -0.42678382       3.54987633      16.15663167  T       0.07967853       0.92827766      -2.24590745      -0.00888852       0.00263873       0.00167151      -3.19179082
In       1.85824199       3.54550420      14.08130770  T       0.30214654      -0.42597485       2.04502634       0.01518592       0.00984052       0.01244938      -3.17941737
In       3.19534157      10.62998975      15.02974095  T      -0.28342195      -0.18421401      -0.26193469       0.00285295       0.03047571      -0.01220703      -3.15467477
In       5.37555981      10.64099789      12.84546757  F       0.00000000       0.00000000       0.00000000       0.14030468       0.13204280       0.19437407      -3.18008256
In       0.19761980      10.62172890      14.28963461  T       2.36377395      -0.99526530       1.88183795      -0.00620946       0.00790180      -0.01400759      -3.17179036
In       5.53480058       3.61205077      18.02377123  T       0.88795001      -0.15325392       0.55306398      -0.00917147       0.01363594       0.00064265      -2.92926812
In       0.58446145       3.72639198      19.48682375  T      -0.04773125      -0.03240127       0.71695294      -0.01953600      -0.01769157      -0.00522852      -2.35696602
In       2.67615076       3.54125189      17.12233496  T       0.37579727       1.37481898      -0.07575314      -0.02250573       0.00665475       0.00307832      -3.06754565
In       4.22267443      10.55273009      18.42938303  T       0.00128750      -2.10607673       2.52425733       0.02084687      -0.01002784      -0.02958299      -2.22731543
In      -1.98496475      10.66116209      16.49632933  T       0.85986493       0.59423345      -0.30270655       0.02153171      -0.01096420      -0.01225722      -3.15014982
In       0.99422593      10.69572254      17.59520332  T      -0.76076148       0.72658254       1.39462650       0.01932972      -0.00003125      -0.01980446      -2.49025774
N        3.64846562      -0.00118506      13.25703882  T       0.24430731      -0.12802558      -0.50016707      -0.00959032      -0.01229866       0.00406008     -11.82788086
N        5.83159876       0.00000000      11.10772610  F       0.00000000       0.00000000       0.00000000       0.48616332       0.04357744       1.47315550      -9.56907463
N        0.63275415       0.00000000      12.52951431  F       0.00000000       0.00000000       0.00000000      -0.22627737      -0.21213102      -0.88076842     -11.83414555
N        2.82174134       7.09399843      10.31784344  F       0.00000000       0.00000000       0.00000000      -1.47553909       1.56710434       3.78776407      -8.03196716
N        5.83159876       7.09399843      11.10772610  F       0.00000000       0.00000000       0.00000000       0.73289430       0.00451171       1.72696531      -9.42914391
N        0.63275415       7.09399843      12.52951431  F       0.00000000       0.00000000       0.00000000      -0.34275076      -0.09977973      -1.04354465     -11.76646805
N        4.44495299      -0.05695568      16.22886005  T       0.03803343      -0.35311907       0.24794169      -0.01103296       0.03667462       0.02949297     -11.56612396
N        6.64823574      -0.00122088      14.07084987  T      -0.15211516      -0.09409843      -0.08125817      -0.00921835       0.00639698       0.00397702     -11.67664528
N        1.43092132       0.02332092      15.45255034  T       0.25646010       0.06629361       0.00422592      -0.01473494      -0.00964269      -0.01320103     -11.60726357
N        3.65643817       7.07879372      13.26350637  T      -0.12336745      -0.08662790      -0.25353038      -0.02178587       0.00953174       0.00486630     -11.68442154
N        6.65419961       7.09470228      14.06365205  T       0.08104634      -0.06328409      -0.16555248       0.01438728      -0.00477332      -0.00499814     -11.67963791
N        1.44858855       7.09746894      15.42866081  T       0.07438550       0.00523555      -0.04886604      -0.02222747       0.00150856      -0.01819706     -11.55382633
N        5.36491470       0.13725945      18.88712162  T       1.33220436       1.97777003      -3.45586706       0.01312362      -0.01157568       0.01733155      -8.78419590
N        7.48306619       0.01661919      17.04345478  T       0.25601024       0.16751693       0.57837554       0.00169126      -0.03530304       0.00412887     -11.71396065
N        2.21977602       0.03677521      18.22660808  T      -0.46117444       0.14813851      -1.70810571       0.00885266       0.01354687       0.02574301      -9.90889645
N        4.44720085       7.15688113      16.21120065  T      -0.12953545       0.08920332       0.39461717      -0.03895447       0.00075650      -0.03088138     -11.83988380
N       -0.69231322       7.12671337      17.62829566  T       0.05116015       0.61056114      -0.16496699       0.05644030       0.02195141      -0.06566727     -11.67805099
N        2.26081731       7.08458696      18.22205338  T      -0.63465825       0.26870659      -2.16971940      -0.02913338       0.01184619      -0.00483353      -9.96162987
Ti       4.09865046       8.21739006      11.58165550  F       0.00000000       0.00000000       0.00000000      -0.14171293      -2.32025909      -1.58875847      -8.49904346
Ti      -1.10019410       8.21739006      13.00344467  F       0.00000000       0.00000000       0.00000000      -0.17964245      -0.46119538      -0.70138907      -8.39702988
Ti       1.08879316       8.21739006      10.79177284  F       0.00000000       0.00000000       0.00000000       1.98547506      -1.38661158       0.25544459      -7.36666441
Ti       2.36570239       5.97060633      12.05558491  F       0.00000000       0.00000000       0.00000000       0.13216296       1.17645717      -1.39072561      -8.40902138
Ti       5.37555981       5.97060633      12.84546757  F       0.00000000       0.00000000       0.00000000       0.25561619       0.44718802      -0.80312639      -8.38286495
Ti      -0.64415509       5.97060633      11.26570225  F       0.00000000       0.00000000       0.00000000      -0.92048454       1.19433701       1.25280225      -7.28553486
Ti       2.36570239       1.12339199      12.05558491  F       0.00000000       0.00000000       0.00000000      -0.43279856      -0.46682721       0.53233296      -7.67806196
Ti       5.37555981       1.12339199      12.84546757  F       0.00000000       0.00000000       0.00000000       0.21582383      -0.45885095      -0.71901858      -8.38167191
Ti       7.56454706       1.12339199      10.63379574  F       0.00000000       0.00000000       0.00000000      -0.85483253      -1.22939754       1.16476381      -7.30595016
Ti       4.09865046      13.06460476      11.58165550  F       0.00000000       0.00000000       0.00000000      -0.00486705       0.46493334      -0.68287647      -8.38448715
Ti      -1.92106426      13.06460476      10.00189018  F       0.00000000       0.00000000       0.00000000       0.29718584       0.45363230       1.43088031      -6.49853611
Ti       1.08879316      13.06460476      10.79177284  F       0.00000000       0.00000000       0.00000000       0.80366170       0.88629150       0.18784648      -7.40208340
Ti       4.92777388       8.22959920      14.49021881  T       0.43044749      -0.13976785      -0.33661550      -0.01110597      -0.01491494       0.04124978      -8.21338654
Ti      -0.27014661       8.21680592      15.92211994  T      -0.66856395      -1.24369054       0.38758493       0.00127941      -0.02006589       0.02167329      -8.20240784
Ti       1.92051465       8.20813739      13.69579540  T       0.37846390      -0.49190500      -0.88776215      -0.00662404      -0.00878260      -0.02387439      -8.24415016
Ti       3.19391462       5.99134301      14.99876281  T      -0.61788611       0.28188628       0.94099105      -0.00202250      -0.01745820       0.05872710      -8.18786526
Ti       6.18228246       5.99075720      15.78261643  T      -0.58382831       0.65990753      -0.08379349      -0.00546820       0.02212770       0.00354446      -8.20643997
Ti       0.15880120       5.97076885      14.19027150  T       0.06266073       0.00126975      -0.23389984       0.00025868       0.01102798       0.00076137      -8.24148941
Ti       3.19690692       1.10446558      14.98511644  T       0.24309037      -1.18699876      -0.13438326      -0.01559695       0.00603173       0.01959034      -8.18209743
Ti       6.17005411       1.10502676      15.78817535  T      -0.21508032      -1.23038036      -0.16967950      -0.01681625      -0.02618845       0.01841870      -8.12116432
Ti       0.15378844       1.11793838      14.17531928  T       0.24293839      -0.35206399      -0.67128861       0.00260018      -0.02066118       0.02270652      -8.25893593
Ti       4.91436875      13.06909095      14.53825038  T      -0.42164504       0.71684422       0.75458668       0.00590815       0.02336799       0.03140214      -8.16914749
Ti      -1.10019410      13.06460476      13.00344467  F       0.00000000       0.00000000       0.00000000       0.00180192       0.10999264      -0.92063159      -8.27977276
Ti       1.90048276      13.05651337      13.69776886  T       0.05526459      -0.16343531      -0.51684679      -0.00040798       0.01533130       0.00073270      -8.24341106
Ti       5.79333822       8.25682255      17.30682835  T      -0.12514336       0.08874289      -1.89358803      -0.00742102       0.00613870      -0.05168796      -7.53236055
Ti       0.68863695       8.05405863      18.84650131  T       3.56836956       0.74797896      -4.41606266       0.03004813       0.04753233      -0.06042203      -8.07441902
Ti       2.70242114       8.27080665      16.63062220  T      -0.37510111      -0.52683880      -0.50311887       0.01650945       0.00126300      -0.00747705      -8.41735840
Ti       3.96374009       6.08434034      17.83854193  T      -0.85275104       0.72489096      -1.24713219      -0.03159858      -0.01171152       0.02228576      -7.48488951
Ti      -1.26938773       6.05037053      19.30544792  T      -0.38053679       0.93475114      -1.07621879      -0.04432279      -0.05160469       0.01866198      -8.21761990
Ti       0.96398256       5.94775023      17.11210580  T      -0.35972623       1.73436805       0.17640907      -0.01011193       0.03252948       0.01778065      -8.39997101
Ti       3.94391826       0.99909265      17.91306596  T      -0.88825464      -3.16001104       0.59425168      -0.05000450       0.01320581      -0.01979870      -8.31920719
Ti       6.90358949       1.12757544      18.59894221  T      -1.16195272      -1.72092659      -0.53623206       0.00976712       0.04608636      -0.00584710      -7.69767237
Ti       0.95289634       1.17698002      17.09760981  T      -0.00466735      -1.19254366       0.66701483       0.00473203      -0.00368394      -0.01582225      -8.35858250
Ti      -2.35335607      13.13645680      17.91678035  T       1.77445952       3.04471668      -2.53485078       0.00326962      -0.00835185      -0.01792575      -7.49932384
Ti      -0.32260615      13.03199717      15.84961354  T       0.23836260       0.01161143       0.74141025       0.04023677       0.02720657      -0.02873441      -8.36840153
Ti       2.75431125      13.02139180      16.62494893  T       0.17102438      -0.21526693      -0.22285939       0.01407228      -0.01969907      -0.02721342      -8.43376446
O       -0.88762340       6.53805794      21.07288074  T      -1.17108581      -1.49255825       1.07758666      -0.05877548      -0.03887063       0.02829677      -5.65547276
N        0.09782208       7.31302102      20.47159054  T      -0.57362118      -0.01589612       3.54365453       0.03119883       0.00640652      -0.02997571      -8.71086502
H        0.66187617       7.68825389      21.24304009  T      -0.05168423      -0.69750415      -0.26124819      -0.00019789       0.01327832      -0.00416431      -3.39038992
