75
Lattice="8.208702087402344 0.0 -0.6319061517715454 -3.009857416152954 14.187996864318848 -0.7898827195167542 0.0 0.0 30.647449493408203" Properties=species:S:1:pos:R:3:move_mask:L:1:momenta:R:3:forces:R:3:energies:R:1 adsorbate_info="_JSON {\"site\": {\"coordinates\": [0.5415464049999998, 6.532302379999999, 19.006552694999996], \"connectivity\": 2, \"topology\": [35, 64], \"n_vector\": [0.39147457086150045, -0.5884816277508307, 0.70741574351193], \"h_vector\": [0.9206328398799755, 0.29840235053347763, -0.25177611350290324], \"site_formula\": {\"N\": 1, \"Ti\": 1}}, \"smiles\": \"S1S\", \"mdf\": 1.6019820556968838, \"adsorbate_formula\": \"HNO\"}" bond_change_count=0 energy=-553.9963989257812 stress="0.0003899112925864756 2.129277390849893e-06 -2.220012538600713e-05 2.129277390849893e-06 0.0001974277984118089 -1.4812366316618863e-05 -2.220012538600713e-05 -1.4812366316618863e-05 0.00018639126210473478" free_energy=-553.9963989257812 pbc="T T F"
In       4.09865046       3.54699922      11.58165550  F       0.00000000       0.00000000       0.00000000      -0.02558634      -0.02969671      -0.42421791      -2.28695059
In       7.10850811       3.54699922      12.37153816  F       0.00000000       0.00000000       0.00000000      -0.36055303      -0.06080629      -0.07847223      -3.17344356
In       1.08879316       3.54699922      10.79177284  F       0.00000000       0.00000000       0.00000000       0.12032892      -0.01255869      -0.72942728      -2.19150734
In       2.36570239      10.64099789      12.05558491  F       0.00000000       0.00000000       0.00000000       0.00651684       0.06940618      -0.43261623      -3.12746978
In       4.55468941      10.64099789       9.84391308  F       0.00000000       0.00000000       0.00000000      -0.33408627       0.03978983      -1.00843894      -2.05185843
In      -0.64415509      10.64099789      11.26570225  F       0.00000000       0.00000000       0.00000000       0.28420371       0.03150426      -0.52274430      -2.69888306
In       4.88274683       3.52558073      14.72579211  T       0.90803938       1.38432044      -0.82499752       0.00471191      -0.00617357       0.03957674      -3.22378206
In      -0.44224633       3.51514529      16.19650608  T      -0.60755520      -0.26375681       1.02283349       0.01945297       0.00124045       0.00733025      -3.19736290
In       1.84252382       3.53377294      14.09528618  T      -1.28114225      -1.18241884       0.33971540       0.01471227      -0.00844546      -0.00889280      -3.17239618
In       3.20490693      10.61829327      15.03246936  T       1.00857868      -1.47151652      -2.01467385       0.00179183       0.01746837      -0.03308341      -3.15940475
In       5.37555981      10.64099789      12.84546757  F       0.00000000       0.00000000       0.00000000       0.13608810       0.11049134       0.19256850      -3.17648315
In       0.20622453      10.60909242      14.28325038  T      -2.24112185      -0.01878460       0.36623968       0.00576092       0.00632309       0.00193770      -3.16801119
In       5.47792898       3.54567950      17.95428810  T      -0.80375436       0.78929524      -1.11956691       0.04666033      -0.01605055      -0.00320503      -2.90146518
In       0.69804580       3.69853177      19.45069455  T      -0.49539561      -1.03183598      -0.90247464       0.01512254      -0.01398072       0.00810966      -2.41160083
In       2.65175234       3.49344534      17.10411047  T       0.55415418      -1.11627938       0.32941296       0.00390731      -0.01777669       0.00839546      -3.06057620
In       4.27711794      10.52136571      18.39651281  T       0.42253410       1.34377534       2.94988856      -0.01322149       0.00327756       0.03198184      -2.20966935
In      -1.94423341      10.61846605      16.48264227  T       0.63674847       0.12323530       1.23900258      -0.00559134       0.04980876       0.00341104      -3.14630413
In       1.03618981      10.60887228      17.61677530  T       0.61245226      -0.11156732       0.39960568      -0.03625033      -0.00033227       0.02024412      -2.44409943
N        3.64759047      -0.00226461      13.26150052  T       0.19704373      -0.01645321      -0.32943460       0.01143833      -0.00984662      -0.01582251     -11.82328033
N        5.83159876       0.00000000      11.10772610  F       0.00000000       0.00000000       0.00000000       0.48654723       0.04507539       1.47530675      -9.57325363
N        0.63275415       0.00000000      12.52951431  F       0.00000000       0.00000000       0.00000000      -0.23475680      -0.19684896      -0.85588336     -11.83360291
N        2.82174134       7.09399843      10.31784344  F       0.00000000       0.00000000       0.00000000      -1.47618520       1.56897712       3.78227282      -8.02965260
N        5.83159876       7.09399843      11.10772610  F       0.00000000       0.00000000       0.00000000       0.73539561       0.01229635       1.71663964      -9.41856956
N        0.63275415       7.09399843      12.52951431  F       0.00000000       0.00000000       0.00000000      -0.34054500      -0.09072366      -1.10743928     -11.76022339
N        4.45158306      -0.07459951      16.24450171  T       0.09366637      -0.16477463       0.33062430      -0.00451343      -0.01948275      -0.01150535     -11.57361412
N        6.64637240      -0.00757303      14.07677303  T      -0.08708579      -0.28614900       0.14072876      -0.00532072       0.01002614       0.00428444     -11.67255592
N        1.42933859       0.01005455      15.46023590  T       0.03433815      -0.15871958      -0.07516690      -0.00474348       0.00138457       0.02237680     -11.60881805
N        3.65449032       7.07763617      13.25930591  T       0.26048816      -0.32238944      -0.33894438       0.00670290       0.00328592      -0.00055044     -11.68148994
N        6.65990862       7.09266965      14.04772262  T       0.01659252       0.24559799       0.07245620       0.00765298      -0.03542665       0.03553822     -11.68745136
N        1.45042154       7.07308880      15.40619595  T       0.12080985      -0.11079436       0.05200064       0.01320469       0.01606587       0.02919432     -11.53838539
N        5.39052374       0.11674016      18.90061615  T       1.07976524       1.69550052      -3.59270956       0.06668617       0.04806809      -0.04890998      -8.76686096
N        7.49437899      -0.01588856      17.05461916  T       0.31269093      -0.44462803       0.56922862      -0.01757538       0.03573928       0.00213075     -11.71717453
N        2.23334104      -0.01496421      18.23465480  T      -0.35392556       0.23156141      -2.02844432      -0.03417075      -0.01528437       0.01879548      -9.91891670
N        4.44684866       7.13111816      16.19121707  T      -0.18800916       0.08338807       0.30726203       0.00414404       0.01300147       0.00838403     -11.84308529
N       -0.67249842       7.06850014      17.60087730  T       0.16041790      -0.02930954       0.32051559      -0.03646136       0.03517388      -0.01611793     -11.65963745
N        2.26660050       7.03738868      18.18835832  T      -0.23906616       0.00005370      -2.38208930      -0.04084183      -0.01324546      -0.01102869      -9.95089054
Ti       4.09865046       8.21739006      11.58165550  F       0.00000000       0.00000000       0.00000000      -0.13871822      -2.30634904      -1.60819960      -8.50282478
Ti      -1.10019410       8.21739006      13.00344467  F       0.00000000       0.00000000       0.00000000      -0.16616990      -0.42793131      -0.76242536      -8.40937424
Ti       1.08879316       8.21739006      10.79177284  F       0.00000000       0.00000000       0.00000000       1.98697960      -1.37438536       0.24654292      -7.36772776
Ti       2.36570239       5.97060633      12.05558491  F       0.00000000       0.00000000       0.00000000       0.12001519       1.14740622      -1.44668698      -8.41058064
Ti       5.37555981       5.97060633      12.84546757  F       0.00000000       0.00000000       0.00000000       0.22065710       0.39262348      -0.89700627      -8.38219452
Ti      -0.64415509       5.97060633      11.26570225  F       0.00000000       0.00000000       0.00000000      -0.94093883       1.17704237       1.21931362      -7.29524612
Ti       2.36570239       1.12339199      12.05558491  F       0.00000000       0.00000000       0.00000000      -0.42586040      -0.49906826       0.55625242      -7.67765045
Ti       5.37555981       1.12339199      12.84546757  F       0.00000000       0.00000000       0.00000000       0.22511292      -0.52444071      -0.67942542      -8.37870789
Ti       7.56454706       1.12339199      10.63379574  F       0.00000000       0.00000000       0.00000000      -0.85174346      -1.23695910       1.18321824      -7.30097294
Ti       4.09865046      13.06460476      11.58165550  F       0.00000000       0.00000000       0.00000000      -0.01357684       0.46894526      -0.67677450      -8.38249493
Ti      -1.92106426      13.06460476      10.00189018  F       0.00000000       0.00000000       0.00000000       0.29899830       0.45772353       1.42816663      -6.49979115
Ti       1.08879316      13.06460476      10.79177284  F       0.00000000       0.00000000       0.00000000       0.79791993       0.90449983       0.20807239      -7.39838219
Ti       4.92884504       8.21908337      14.49060174  T      -0.46036742      -1.13916546      -0.39390866      -0.00457819       0.02748553      -0.00714815      -8.21995831
Ti      -0.26021195       8.18639101      15.91991080  T      -0.78155742      -0.52928809       0.71447745      -0.00009178       0.04273115       0.00816198      -8.20858765
Ti       1.92068425       8.20613057      13.69184864  T       0.48250405      -1.08928477      -0.93031176       0.00673434      -0.01021798      -0.01546231      -8.25059700
Ti       3.19501415       5.97011735      14.98065995  T       0.85080730      -0.10164999       0.06315211       0.00212709      -0.02858384       0.01957051      -8.18937874
Ti       6.17388557       5.96364140      15.74083842  T      -1.13676726       1.00678551      -0.51913792       0.00317667       0.01864520       0.03167903      -8.18001175
Ti       0.15587986       5.95565647      14.16932440  T      -0.77393036       0.99992788       0.44150313      -0.00089318       0.00722159       0.02401394      -8.23805904
Ti       3.19817823       1.08926933      15.00075301  T       0.08935192      -0.66055469       0.13377263      -0.02268618       0.01585271      -0.01065461      -8.18781853
Ti       6.17296144       1.08318614      15.80807152  T      -0.06806744      -1.19774468       0.35125577      -0.01896028      -0.03560948      -0.01941315      -8.12905312
Ti       0.15260590       1.10727680      14.18684692  T      -0.64985076      -0.48456408      -0.70965761       0.00078629      -0.00479080      -0.01378883      -8.26282501
Ti       4.91533918      13.05379697      14.54072104  T      -0.22111339       0.09929112      -0.19066733       0.01515605      -0.00273083       0.01339090      -8.17025852
Ti      -1.10019410      13.06460476      13.00344467  F       0.00000000       0.00000000       0.00000000       0.00637637       0.08155639      -0.93016994      -8.27789307
Ti       1.90061092      13.05250412      13.70145559  T      -0.66033151       0.30285353       0.27090288      -0.00425697       0.00186850      -0.00280736      -8.24119759
Ti       5.81221313       8.21030585      17.29777547  T       0.61678998      -0.77624902      -1.17339506      -0.02092042       0.02162704      -0.04148727      -7.55751705
Ti       0.69253187       7.88743862      18.90405424  T       2.31180022      -3.71060749      -1.60838334       0.01383553       0.01214402       0.00746654      -8.14408302
Ti       2.70641806       8.24043264      16.61441677  T       0.20439444      -1.05242332      -0.26269372      -0.00114078      -0.01626188       0.02681650      -8.42286110
Ti       3.96542802       6.03639527      17.80451157  T      -2.05919807       0.76830067      -1.88643919      -0.01653968      -0.00702716      -0.01875988      -7.48177528
Ti      -1.31161781       5.92036351      19.18867271  T       4.08147042      -0.38649441      -0.32383428       0.00831807       0.00794356       0.08834904      -8.11516285
Ti       0.96432352       5.90013045      17.06401605  T       0.93332031       1.11076505       0.69248380       0.03676490       0.00065650       0.00190533      -8.35448837
Ti       3.94559504       0.95271473      17.93633789  T       0.58131706      -2.18357717       0.86750243       0.02436076       0.02562101      -0.00333716      -8.31798649
Ti       6.92724937       1.13534088      18.59760618  T      -1.39198813      -1.49879568      -2.37890144      -0.06007825      -0.04846621      -0.00940716      -7.70202446
Ti       0.95693331       1.14702736      17.12458767  T      -0.77434685      -0.55083102       0.17975705       0.01197320       0.00376450      -0.03050477      -8.34453773
Ti      -2.34375224      13.08912664      17.90944347  T       2.77522783       2.63906992      -1.79121313      -0.00325209       0.00775055      -0.00661376      -7.50601768
Ti      -0.31284125      13.00584319      15.83481047  T       0.12137224      -0.33776735       1.05141047      -0.00559268       0.02227490       0.03736529      -8.35887241
Ti       2.77153103      13.00010564      16.63987794  T       0.39859217      -0.23822742       0.79102869      -0.03491611       0.01909935       0.00025108      -8.43707657
N        0.20743366       6.80627559      20.40670664  T      -3.95274981       2.03808855       0.17383735       0.00612213      -0.01173857       0.04967216      -8.60582733
O       -0.25309658       5.48584409      20.71088373  T      -3.28241068       1.16278381       1.93458234      -0.00643748       0.05757803      -0.01391315      -5.87993145
H        0.60817468       7.12943778      21.29534621  T       0.82137941       0.64969116       0.38483394      -0.06868993       0.04077563      -0.05634515      -3.34772348
