77
Lattice="11.60444164276123 0.0 6.999999919513338e-16 -2.799999967805335e-15 9.899094581604004 3.73103928565979 0.0 0.0 33.57935333251953" Properties=species:S:1:pos:R:3:move_mask:L:1:momenta:R:3:forces:R:3:energies:R:1 adsorbate_info="_JSON {\"site\": {\"coordinates\": [5.80222082, 3.56009269, 23.31899452], \"connectivity\": 1, \"topology\": [10], \"n_vector\": [-0.1277492053821044, -0.14775258265712496, 0.9807391675886052], \"h_vector\": [1.0, 0.0, 0.0], \"site_formula\": {\"Hf\": 1}}, \"smiles\": \"Cl\", \"mdf\": 1.7392171104391174, \"adsorbate_formula\": \"H3NO\"}" bond_change_count=0 energy=-547.61328125 stress="0.00022034888388589025 4.74350690637948e-06 -6.640842457272811e-06 4.74350690637948e-06 0.00025586088304407895 6.668833520961925e-05 -6.640842457272811e-06 6.668833520961925e-05 6.444405880756676e-05" free_energy=-547.61328125 pbc="T T F"
Hf       1.93407357       3.56009269      15.85691643  F       0.00000000       0.00000000       0.00000000      -0.01775062       0.07219788       0.40717909     -10.29825401
Hf      -0.00000000       8.50963974      15.85691643  F       0.00000000       0.00000000       0.00000000      -0.00712340       0.33372742      -0.01638332      -9.61615372
Hf       1.91696333       3.60730751      19.54435772  T       1.33667671      -1.13886240      -1.81182990       0.03380657      -0.00861207      -0.01100625     -10.38848114
Hf      -0.00168008       8.58133730      19.52926815  T      -1.37098601       0.53814168       1.28316710       0.00572043      -0.02993046      -0.00685239     -10.38080406
Hf       1.94619049       3.81197977      23.09525413  T       0.69538537       2.32376184      -3.75263744       0.00453759      -0.03161535       0.00822502      -9.13735008
Hf      -0.01421086       8.51302660      23.24149309  T       2.51553429       0.72456935      -0.89484266       0.00845133      -0.00164288       0.00277513     -10.16711998
Hf       5.80222082       3.56009269      15.85691643  F       0.00000000       0.00000000       0.00000000      -0.00824780       0.08961406       0.40549022     -10.29531479
Hf       3.86814713       8.50963974      15.85691643  F       0.00000000       0.00000000       0.00000000      -0.00241241       0.33246583      -0.02195910      -9.61530590
Hf       5.80584829       3.62032125      19.55714123  T       0.24986868      -1.03900279      -1.66822705       0.00284492       0.00247848      -0.01597427     -10.40310097
Hf       3.86257526       8.58406841      19.53429066  T      -0.26665018      -0.50052929      -2.72185255      -0.00555471      -0.02757688      -0.01676317     -10.38471413
Hf       5.80874506       3.81881575      23.12243609  T      -1.53590670      -1.43442448      -7.39338595      -0.00236696      -0.04818222       0.00652874      -9.85771751
Hf       3.86414237       8.52076924      23.23169311  T      -0.14183358       0.08004273      -0.38309106      -0.00786635       0.00473592      -0.01016160     -10.17612553
Hf       9.67036819       3.56009269      15.85691643  F       0.00000000       0.00000000       0.00000000      -0.03316802       0.07819971       0.39141724     -10.29813480
Hf       7.73629427       8.50963974      15.85691643  F       0.00000000       0.00000000       0.00000000      -0.00742767       0.33282381      -0.02748671      -9.61657143
Hf       9.65745379       3.61559337      19.54854061  T      -0.92272258       1.92732901       0.44226188      -0.00469863       0.00215635       0.00157861     -10.37955666
Hf       7.73375109       8.58214086      19.53283849  T       1.08638045       1.21262026       0.44832176       0.00506162      -0.02327855       0.00997133     -10.39765739
Hf       9.57800266       3.76048196      23.18891887  T      -3.46898136       4.16562798      -0.79277836       0.05089140      -0.02521917      -0.00257003     -10.41516590
Hf       7.73178589       8.55779090      23.21418905  T      -1.43304898      -1.20800897      -2.71348302       0.00040837      -0.03447855      -0.00379626     -10.21169281
Sc      -0.00000000       1.40585887      13.99139690  F       0.00000000       0.00000000       0.00000000      -0.00098251       0.20395303       0.22220203      -7.20669413
Sc       1.93407357       6.35540581      13.99139690  F       0.00000000       0.00000000       0.00000000      -0.00115931      -0.62604821       0.67229497      -6.27329254
Sc      -0.00170884       1.41954996      17.67539189  T       0.65096187       0.59325933       0.37506420       0.00236785       0.01463473      -0.00117065      -7.19990396
Sc       1.92884386       6.37885413      17.64848966  T       0.19858454       0.02200935       0.21658519      -0.00161407      -0.00174083      -0.00266512      -7.16760683
Sc       0.00056877       1.45383412      21.41475764  T      -0.12888151       0.10378649       0.54863991       0.00575012      -0.00490998       0.00883907      -6.80811167
Sc       1.91284656       6.43157123      21.30517359  T       0.10246396       0.94691256      -0.54454758       0.00820181      -0.01172608       0.03004465      -7.21818686
Sc       3.86814713       1.40585887      13.99139690  F       0.00000000       0.00000000       0.00000000      -0.00161506       0.20513901       0.22385865      -7.20613194
Sc       5.80222082       6.35540581      13.99139690  F       0.00000000       0.00000000       0.00000000      -0.00083227      -0.62666786       0.67162269      -6.27207947
Sc       3.86296322       1.42215264      17.67560036  T       0.16497573       0.54591734       0.48478148      -0.00262760       0.02296209      -0.01021017      -7.20196915
Sc       5.80314833       6.38116644      17.65286941  T       0.45086470      -0.85373152      -0.90177244      -0.00395095      -0.01159184      -0.00441231      -7.17378521
Sc       3.87749840       1.46627411      21.42929071  T       0.52748600       0.42580265       0.04247182      -0.00783172      -0.00345470       0.02091041      -6.84761906
Sc       5.78240402       6.41739744      21.31922524  T      -0.15975184      -0.99490617      -0.45519132       0.02123025      -0.00213930       0.02668943      -7.26198912
Sc       7.73629427       1.40585887      13.99139690  F       0.00000000       0.00000000       0.00000000      -0.00116803       0.20746696       0.22344136      -7.20702076
Sc       9.67036819       6.35540581      13.99139690  F       0.00000000       0.00000000       0.00000000      -0.00017054      -0.62545812       0.67116725      -6.27415180
Sc       7.73401704       1.43080493      17.66635700  T       1.25068635      -0.27134025      -0.65276855       0.00582949       0.00446619       0.00822223      -7.19040442
Sc       9.66301659       6.37992891      17.64674554  T      -0.45080326       0.18216378      -0.79596182       0.01813126      -0.00718953       0.01927759      -7.17044830
Sc       7.72411574       1.50795983      21.42061492  T      -0.00373049      -0.50845860       1.26547099       0.00498891      -0.00452897       0.01792166      -6.79111242
Sc       9.68430444       6.41793364      21.32420648  T       0.62622334      -0.98365208       0.38907146       0.00602848      -0.02828713       0.00113673      -7.24904203
Si       1.93407357       0.80531353      12.12587738  F       0.00000000       0.00000000       0.00000000       0.00068577      -0.98606205      -0.05364618      -4.51963711
Si      -0.00000000       4.12782955      13.99139690  F       0.00000000       0.00000000       0.00000000      -0.00124548       0.97848135      -0.23558763      -5.08978653
Si      -0.00000000       5.75486040      15.85691643  F       0.00000000       0.00000000       0.00000000      -0.01739318       0.06709366      -0.65041649      -6.48720169
Si       1.93435879       9.10564112      17.65386752  T      -0.48598714      -0.00057294      -0.69326095      -0.00867307      -0.00426927       0.00057216      -6.67870855
Si       1.93407357       0.80531353      15.85691643  F       0.00000000       0.00000000       0.00000000      -0.01663550       0.05951895      -0.35886696      -6.42878675
Si      -0.00998866       4.14929358      17.69257999  T      -0.02924988       0.32436147       0.15390430       0.01990411      -0.00083032       0.00420175      -6.58764315
Si      -0.01020280       5.80797320      19.48797803  T       0.28112137       0.08767963       0.22384856      -0.00739421      -0.00852519       0.00597489      -6.45070887
Si       1.92425360       9.12441757      21.42178830  T       0.40560402       0.76691970      -0.01521808       0.00866822       0.02061808      -0.01556716      -6.54864931
Si       1.92880033       0.87138979      19.52544206  T       0.84864331      -0.45732461       0.74523315       0.00981245       0.01417100      -0.00108244      -6.53254366
Si       0.00208386       4.20332576      21.36418048  T      -0.00290517       0.16767489       1.13832130      -0.03031819       0.02398201       0.02947002      -6.54816818
Si      -0.00727973       5.71720579      23.26328461  T       0.50928507      -1.93904119       1.21757190       0.00408376      -0.01850798      -0.00805698      -5.17702675
Si       1.93231241       9.28165526      25.08538094  T      -0.14988488       0.90554598       0.12853967      -0.00262655       0.02940768      -0.00533296      -4.63864040
Si       5.80222082       0.80531353      12.12587738  F       0.00000000       0.00000000       0.00000000      -0.00073082      -0.98536682      -0.05411765      -4.51926708
Si       3.86814713       4.12782955      13.99139690  F       0.00000000       0.00000000       0.00000000       0.00073104       0.97808743      -0.23453000      -5.09054041
Si       3.86814713       5.75486040      15.85691643  F       0.00000000       0.00000000       0.00000000       0.00119912       0.07517543      -0.63833910      -6.48774624
Si       5.80179249       9.10589071      17.65358536  T      -0.00025569      -0.62907315      -0.55838322      -0.01341675      -0.00740561       0.01795173      -6.67649460
Si       5.80222082       0.80531353      15.85691643  F       0.00000000       0.00000000       0.00000000      -0.03356969       0.07010750      -0.38516796      -6.42869949
Si       3.86498822       4.15614309      17.69564051  T      -0.08194743       0.73193624      -0.00512650       0.01069598      -0.03583534       0.02576767      -6.58602810
Si       3.85805704       5.81688678      19.48837677  T       0.04029539      -0.19337232       0.31983556       0.01089381      -0.02139489       0.00950062      -6.45204163
Si       5.79365989       9.12322026      21.41168472  T       0.18943340       0.45309781       0.14584850       0.00655598      -0.00235685       0.00033013      -6.55319405
Si       5.80143925       0.88520471      19.51395909  T       0.64148695      -0.09385990       0.09595996       0.00651785      -0.00456509       0.02309391      -6.53264427
Si       3.84714183       4.21307074      21.33965053  T      -0.53183874       0.56946189       0.95810008      -0.01549422       0.01831747      -0.02924820      -6.56619930
Si       3.84409033       5.74292196      23.22690574  T       0.16946084      -1.56655863       0.93973332       0.01461570       0.01700979       0.02102569      -5.19002819
Si       5.80403805       9.29093587      25.07241607  T       0.58775670       0.47776579      -0.86595406       0.01766904      -0.00773823       0.01416206      -4.64187431
Si       9.67036819       0.80531353      12.12587738  F       0.00000000       0.00000000       0.00000000      -0.00031088      -0.98760384      -0.05152529      -4.51946354
Si       7.73629427       4.12782955      13.99139690  F       0.00000000       0.00000000       0.00000000      -0.00338505       0.97840583      -0.23681784      -5.09110832
Si       7.73629427       5.75486040      15.85691643  F       0.00000000       0.00000000       0.00000000      -0.01748306       0.07546209      -0.65375060      -6.48916817
Si       9.66813554       9.10550562      17.65419074  T       0.37266034       0.10576679      -1.00030176       0.00866775      -0.00213986       0.00175675      -6.67711449
Si       9.67036819       0.80531353      15.85691643  F       0.00000000       0.00000000       0.00000000       0.00847683       0.06173376      -0.38676322      -6.42888451
Si       7.73262387       4.15991149      17.69892742  T      -0.13910018       0.59916605       0.31919585      -0.00001089      -0.00647176      -0.01898510      -6.59189510
Si       7.73552781       5.81401651      19.50877449  T       0.19960624       0.00916268       0.17101892       0.00309830       0.00814144      -0.01475633      -6.46808672
Si       9.67070800       9.12179504      21.41146815  T      -0.48571557      -0.02348063      -0.12619625       0.00397744       0.00671936       0.00564037      -6.55336952
Si       9.66366028       0.88262734      19.51518936  T       0.48952619      -0.66600569       0.14728111      -0.00581187       0.00130021       0.01812545      -6.52923918
Si       7.72962215       4.22551397      21.39666477  T      -0.04329502      -0.29516556       2.01240311      -0.01536545      -0.02010537      -0.02816511      -6.41886330
Si       7.76318685       5.78031374      23.19044034  T       0.51131801      -1.46832784      -0.78008829      -0.02672430       0.03802606      -0.00474639      -5.19319963
Si       9.65063737       9.29938526      25.07854550  T       0.42466892       0.78863055      -0.28958202       0.00686662      -0.00487974       0.00759295      -4.64171982
N        6.96797615       4.16493941      24.98541603  T       2.22623662       0.87446443       5.00196481      -0.01223403       0.01013459       0.05588326      -9.60108662
O        8.18982029       3.69922509      24.62753183  T       0.89371690       2.04219334      -0.69178815       0.05666244       0.01797090      -0.07743931      -5.73839474
H        7.08910736       5.13164677      25.35117153  T       0.51675731      -0.11590547       0.76229603      -0.03136867      -0.07849668      -0.00808915      -3.21740437
H        6.66051436       3.53205583      25.75295722  T       0.55719724      -0.08261919       0.38915227       0.01521714      -0.06008311       0.00986797      -3.22148275
H        8.46240433       2.98448453      25.31341753  T      -0.33508334      -0.36006718      -0.19436970      -0.02048934      -0.02996841       0.00069767      -3.06223059
