77
Lattice="11.60444164276123 0.0 6.999999919513338e-16 -2.799999967805335e-15 9.899094581604004 3.73103928565979 0.0 0.0 33.57935333251953" Properties=species:S:1:pos:R:3:move_mask:L:1:momenta:R:3:forces:R:3:energies:R:1 adsorbate_info="_JSON {\"site\": {\"coordinates\": [5.80222082, 9.07737637, 25.184515], \"connectivity\": 1, \"topology\": [59], \"n_vector\": [-0.03888478499581705, 0.20283307476623694, 0.9784409625913579], \"h_vector\": [1.0, 0.0, 0.0], \"site_formula\": {\"Si\": 1}}, \"smiles\": \"Cl\", \"mdf\": 1.739217110439119, \"adsorbate_formula\": \"H3NO\"}" bond_change_count=0 energy=-550.78662109375 stress="0.00025746936444193125 -6.618997758778278e-06 1.9489980331854895e-05 -6.618997758778278e-06 0.00031319918343797326 6.339594256132841e-05 1.9489980331854895e-05 6.339594256132841e-05 5.542446524486877e-05" free_energy=-550.78662109375 pbc="T T F"
Hf       1.93407357       3.56009269      15.85691643  F       0.00000000       0.00000000       0.00000000      -0.08067577       0.02793628       0.27529472     -10.29382896
Hf      -0.00000000       8.50963974      15.85691643  F       0.00000000       0.00000000       0.00000000       0.04027465       0.32066381      -0.00724816      -9.61601448
Hf       1.99951290       3.56715638      19.60952598  T      -2.15540811      -1.67803380       0.10742709      -0.02226846       0.00289732      -0.04178479     -10.46177483
Hf       0.00679142       8.55036729      19.52814943  T       0.55520065       0.96008588      -1.95837400       0.01669459       0.00844948       0.00930729     -10.36289406
Hf       2.07693996       3.67002741      22.98038955  T       0.52082528       1.59959408      -2.48348992      -0.08101299      -0.00115753       0.02369681      -9.24408817
Hf       0.00034009       8.44146397      23.21407416  T      -0.20043088       0.96198733       1.70260484       0.00607088       0.02949992       0.03020773     -10.14983368
Hf       5.80222082       3.56009269      15.85691643  F       0.00000000       0.00000000       0.00000000      -0.00958917       0.03503159       0.36849290     -10.32650375
Hf       3.86814713       8.50963974      15.85691643  F       0.00000000       0.00000000       0.00000000      -0.00140247       0.32549495      -0.02787024      -9.61728668
Hf       5.81885145       3.56365110      19.40893604  T      -0.63338228       0.95544924      -1.58778883      -0.01742773       0.01713198       0.04235101     -10.69345284
Hf       3.87676200       8.56273583      19.53666104  T       1.43795341      -0.19721534      -1.50187085       0.00671690      -0.00694390      -0.00794279     -10.39028168
Hf       6.00878938       3.71502864      23.29865392  T      -0.46221251      -0.37528014      -3.22559900       0.00145841      -0.00424397      -0.04023790     -11.26210022
Hf       3.91016917       8.48405599      23.21843274  T       0.47741913      -0.97449743       0.35229583      -0.00547704       0.01351437       0.00897742     -10.21287727
Hf       9.67036819       3.56009269      15.85691643  F       0.00000000       0.00000000       0.00000000       0.16695969       0.03954437       0.30730215     -10.30047417
Hf       7.73629427       8.50963974      15.85691643  F       0.00000000       0.00000000       0.00000000       0.02271801       0.32724541      -0.01296350      -9.61588669
Hf       9.64988243       3.56736920      19.54457019  T      -2.22380280      -0.78917099       0.93461785      -0.01287534       0.00778857      -0.03404026     -10.46991348
Hf       7.73989127       8.57363162      19.52688407  T      -1.36966169       0.75288746      -0.53762590       0.00511726       0.01092736       0.00333933     -10.39681721
Hf       9.43131584       3.66192752      23.04479782  T      -0.92261585       4.41810493      -5.50311992       0.00986128      -0.03708308       0.00360370      -9.53712273
Hf       7.73695453       8.52306453      23.22314013  T       0.62197507      -0.83155918      -2.82348115       0.00200336      -0.02162912       0.00254332     -10.25981045
Sc      -0.00000000       1.40585887      13.99139690  F       0.00000000       0.00000000       0.00000000       0.00887408       0.17478487       0.22870828      -7.20411730
Sc       1.93407357       6.35540581      13.99139690  F       0.00000000       0.00000000       0.00000000       0.00072156      -0.62541914       0.66490883      -6.27104378
Sc       0.00059714       1.40205562      17.65731512  T       0.36810626      -0.38152204      -0.35310581       0.01578145      -0.00516050       0.02729045      -7.19809914
Sc       1.94382689       6.36286610      17.66036040  T       1.01940551       0.14855590       0.37031970      -0.01669198      -0.00045319      -0.00582191      -7.17902660
Sc       0.02486122       1.37727036      21.46028436  T       0.03553868       0.29330111       1.04826098      -0.00376664       0.01814765      -0.00686515      -6.97937346
Sc       1.96200799       6.37204385      21.33360639  T       0.16399058      -0.49594865      -0.83242997      -0.00755714       0.01814234       0.00125329      -7.23041677
Sc       3.86814713       1.40585887      13.99139690  F       0.00000000       0.00000000       0.00000000      -0.00626458       0.18096879       0.21398564      -7.20070744
Sc       5.80222082       6.35540581      13.99139690  F       0.00000000       0.00000000       0.00000000       0.00093051      -0.62701440       0.67194229      -6.27780342
Sc       3.88788071       1.41192437      17.70669079  T       1.08036827       0.01244998      -0.88429405      -0.01245817      -0.00494191      -0.00401896      -7.28984833
Sc       5.79966757       6.38199792      17.63893833  T      -0.94085443      -0.18500401      -0.61656269      -0.00204862      -0.00023606      -0.00928057      -7.16782570
Sc       3.89621499       1.44078775      21.28235396  T       1.98779320      -0.90104401      -0.42206864       0.04019547       0.00950781       0.02292287      -8.03657341
Sc       5.82637655       6.31872012      21.29006153  T      -0.53963196      -0.91090393      -0.66270689      -0.01728925      -0.01396897       0.03374118      -7.37622786
Sc       7.73629427       1.40585887      13.99139690  F       0.00000000       0.00000000       0.00000000       0.00869905       0.19181749       0.20736460      -7.20247078
Sc       9.67036819       6.35540581      13.99139690  F       0.00000000       0.00000000       0.00000000       0.00403032      -0.62477303       0.66962689      -6.27350521
Sc       7.74774907       1.41787119      17.69242825  T       0.58390741      -1.02526369       0.29586380      -0.00741637       0.01385441       0.02646286      -7.26567793
Sc       9.69581766       6.37053251      17.65278185  T       0.09626008      -0.32652929      -0.94353015      -0.00423984      -0.00267039      -0.03272004      -7.16806030
Sc       7.73464374       1.45746445      21.37467532  T       1.55846311      -0.12611896      -1.02378039      -0.03847218       0.01722330       0.03259069      -8.12760162
Sc       9.71654188       6.39081474      21.28675798  T      -0.35814227      -0.62727759      -1.98082955      -0.01613266      -0.00046167       0.02176891      -7.24723005
Si       1.93407357       0.80531353      12.12587738  F       0.00000000       0.00000000       0.00000000       0.00164972      -1.01297379      -0.02631450      -4.51694012
Si      -0.00000000       4.12782955      13.99139690  F       0.00000000       0.00000000       0.00000000       0.00592016       0.98600984      -0.23939867      -5.09034634
Si      -0.00000000       5.75486040      15.85691643  F       0.00000000       0.00000000       0.00000000       0.06543536       0.00077420      -0.57802558      -6.48748970
Si       1.93976261       9.09933248      17.65738367  T      -0.16554936       0.35184571      -0.47663723      -0.01214275       0.00187527       0.00797976      -6.68272877
Si       1.93407357       0.80531353      15.85691643  F       0.00000000       0.00000000       0.00000000       0.07112586      -0.08095745      -0.29689538      -6.42165995
Si       0.01784037       4.13080014      17.71208484  T      -0.30757663      -0.52937935       0.04136501       0.01933824      -0.01793007       0.01224082      -6.57833052
Si       0.02926930       5.76002754      19.50427296  T      -0.19514562      -0.23706408      -0.64050331      -0.01641324      -0.00564852       0.02892859      -6.46500921
Si       1.94237638       9.08268852      21.41586308  T       0.65713692       0.42265634      -0.11045680      -0.00342375       0.01239188       0.00068101      -6.56420279
Si       1.90267110       0.84216976      19.49623995  T       0.31433674      -0.76542344       0.05914720      -0.01614455       0.00866927      -0.04001356      -6.53180361
Si      -0.02558736       4.10966614      21.37217910  T       0.28445556       0.22892452       1.35001527       0.01580992       0.02538258      -0.00820585      -6.60711193
Si       0.01321768       5.56425514      23.23574188  T      -1.20259806      -2.27437916       1.24429855      -0.00267324       0.02315154      -0.00907440      -5.12793255
Si       1.96131217       9.27689405      25.03595630  T       0.59750340       0.04226326      -0.07779516      -0.03995033      -0.03684203       0.02808217      -4.71120358
Si       5.80222082       0.80531353      12.12587738  F       0.00000000       0.00000000       0.00000000      -0.00232489      -0.99516022      -0.04257157      -4.51854420
Si       3.86814713       4.12782955      13.99139690  F       0.00000000       0.00000000       0.00000000      -0.00539603       0.98335683      -0.24498963      -5.08331394
Si       3.86814713       5.75486040      15.85691643  F       0.00000000       0.00000000       0.00000000      -0.03593232       0.10176788      -0.70402825      -6.48156452
Si       5.80293679       9.10253543      17.65492164  T       0.21091721       0.65806474      -0.88479551      -0.00249241       0.02229314      -0.00411014      -6.67734241
Si       5.80222082       0.80531353      15.85691643  F       0.00000000       0.00000000       0.00000000       0.02442266      -0.00862548      -0.23457189      -6.44275331
Si       3.83918471       4.14269723      17.67285159  T      -0.20990537       0.13921749      -0.10167447       0.03813198       0.02862430       0.02580389      -6.60663509
Si       3.89236909       5.78815546      19.49735378  T       0.43777623      -0.33907175      -0.21275532      -0.00568014      -0.01626823      -0.01041469      -6.45209837
Si       5.81670175       9.09936681      21.41545965  T      -0.67433014       0.60032599       0.07670896      -0.00710142       0.03352857       0.02040265      -6.56102419
Si       5.84583905       0.90648748      19.56578523  T       0.30352717      -0.41874517       1.99919756      -0.02443533       0.00438792       0.03516279      -6.66285563
Si       4.10817461       4.08460681      21.34847676  T      -0.05243873       0.05948527       0.35815422       0.03944962      -0.00910175       0.00382429      -6.38008785
Si       3.95252931       5.64244941      23.22306752  T      -0.48169544      -2.36659806       1.15451198      -0.04192189       0.05309409       0.02051807      -5.26332998
Si       5.79640336       9.30896360      25.07197900  T      -0.73341411      -2.22700954      -2.87019937      -0.00890591       0.01802227       0.00068160      -5.03566837
Si       9.67036819       0.80531353      12.12587738  F       0.00000000       0.00000000       0.00000000       0.00209128      -1.00148010      -0.03986177      -4.51788330
Si       7.73629427       4.12782955      13.99139690  F       0.00000000       0.00000000       0.00000000       0.00532591       0.98282897      -0.24245584      -5.08233261
Si       7.73629427       5.75486040      15.85691643  F       0.00000000       0.00000000       0.00000000       0.05943026       0.15585236      -0.72613859      -6.47958088
Si       9.67524211       9.10027733      17.65408243  T      -0.36423896       0.68526904      -0.50396764      -0.01134399       0.01308483       0.01492071      -6.68210983
Si       9.67036819       0.80531353      15.85691643  F       0.00000000       0.00000000       0.00000000       0.01555092      -0.03748666      -0.37820527      -6.42699099
Si       7.76662185       4.15458494      17.66028106  T       0.26302522      -0.85926186       0.06490820       0.01204963      -0.00033255       0.02303806      -6.59118700
Si       7.75255953       5.82497861      19.45728017  T      -0.29425160      -0.56758849      -0.76689866      -0.01309796      -0.00983168      -0.00674497      -6.43207407
Si       9.67959910       9.09940393      21.40959751  T       0.29923252      -0.48125867      -0.14853150       0.00390830      -0.01761455       0.00002314      -6.55566978
Si       9.72136812       0.83860531      19.51945133  T       0.64519001      -0.02194469      -0.30403900      -0.01868029       0.01285454      -0.03790335      -6.52564001
Si       7.61349319       4.16663890      21.22225871  T      -0.41341028      -0.44557597       0.93854528      -0.08049066      -0.00188849      -0.01275282      -6.33166742
Si       7.78770819       5.76181888      23.16737650  T      -0.17025834      -2.19112576       0.28953781      -0.01513577       0.00513049       0.01097389      -5.33285379
Si       9.67524804       9.27759854      25.07156018  T      -0.18035254       1.25883380       0.04660338       0.00772438       0.00087373      -0.00726996      -4.69903946
N        5.69607807      11.50497605      26.39139648  T       0.02156813       2.21214440       1.99675610       0.00264060       0.06922412      -0.00886083      -8.27581406
O        5.84802310      12.30428031      25.38750870  T      -2.12851933      -0.17947507       1.31162749      -0.04405296      -0.01034927      -0.05456829      -4.52163029
H        4.76194075      11.55508759      26.89349516  T      -0.37896530       0.06639756      -0.23248743      -0.01816447      -0.03481573       0.05733141      -3.26311946
H        6.54362874      10.97392198      26.70653286  T       0.27256983       0.00108441      -0.15521887       0.00565850      -0.05994514       0.03385153      -3.19474292
H        7.77355089      12.52991463      26.96681960  T       1.46281270       1.19900033       0.80707260       0.03619976      -0.00034197      -0.03795719      -4.01815891
