77
Lattice="11.60444164276123 0.0 6.999999919513338e-16 -2.799999967805335e-15 9.899094581604004 3.73103928565979 0.0 0.0 33.57935333251953" Properties=species:S:1:pos:R:3:move_mask:L:1:momenta:R:3:forces:R:3:energies:R:1 adsorbate_info="_JSON {\"site\": {\"coordinates\": [8.703331229999998, 3.8439611200000003, 22.386235235], \"connectivity\": 2, \"topology\": [16, 69], \"n_vector\": [-0.4309775096600361, 0.7702128106896236, 0.47013892884638214], \"h_vector\": [-0.7042021881398226, 0.2067147149678919, -0.6792409769992012], \"site_formula\": {\"Hf\": 1, \"Si\": 1}}, \"smiles\": \"S1S\", \"mdf\": 0.695623136229062, \"adsorbate_formula\": \"H3NO\"}" bond_change_count=0 energy=-551.7417602539062 stress="0.00020390412828419358 -1.2019983159916592e-06 4.00838689529337e-06 -1.2019983159916592e-06 0.0002812627353705466 5.316361057339236e-05 4.00838689529337e-06 5.316361057339236e-05 6.325280264718458e-05" free_energy=-551.7417602539062 pbc="T T F"
Hf       1.93407357       3.56009269      15.85691643  F       0.00000000       0.00000000       0.00000000       0.00461170       0.08451658       0.47968000     -10.30286980
Hf      -0.00000000       8.50963974      15.85691643  F       0.00000000       0.00000000       0.00000000      -0.00831393       0.32315236       0.00395951      -9.61215687
Hf       1.94027102       3.59481660      19.49322674  T       1.21618201       2.69049429       2.06064151      -0.00060127      -0.01111344       0.01511046     -10.37398338
Hf      -0.01713060       8.56888053      19.53080189  T       2.01342122      -0.01663763      -1.42212519      -0.00190993       0.00398985       0.01738964     -10.37782478
Hf       1.96172300       3.73863779      23.08202811  T       0.01397936       3.29315771      -1.10270043      -0.04602326       0.02253323       0.00379013      -9.60252380
Hf      -0.00994235       8.49280809      23.17391498  T      -2.46874487       1.20528037      -0.77018815       0.00007448       0.01765200       0.00623302     -10.17543983
Hf       5.80222082       3.56009269      15.85691643  F       0.00000000       0.00000000       0.00000000       0.06610692       0.05606708       0.35336834     -10.29237080
Hf       3.86814713       8.50963974      15.85691643  F       0.00000000       0.00000000       0.00000000      -0.00173429       0.32873571      -0.00360075      -9.61354923
Hf       5.85144892       3.62097718      19.58878639  T      -1.81216560      -0.36605347       2.39581830       0.01043067       0.00907585       0.02884410     -10.39269543
Hf       3.88837866       8.57297192      19.52886498  T       0.10879074      -1.63952269      -0.18741187       0.00136251       0.01091571       0.00769418     -10.38248062
Hf       5.70840930       3.67217523      23.16039297  T       1.44259449      -0.90153978      -2.30066180       0.00768358       0.01258123       0.02703917     -10.57847977
Hf       3.89249877       8.47001083      23.18884211  T      -0.41056800       0.19214664       1.92519164       0.00621932      -0.00641066      -0.00393129     -10.14000893
Hf       9.67036819       3.56009269      15.85691643  F       0.00000000       0.00000000       0.00000000      -0.06135568       0.06256264       0.35371363     -10.29150772
Hf       7.73629427       8.50963974      15.85691643  F       0.00000000       0.00000000       0.00000000       0.00306135       0.32919899      -0.04165871      -9.62189579
Hf       9.63410931       3.62030979      19.59543967  T      -0.14994363       0.12406071       0.10323652      -0.04179983      -0.02824418      -0.04031687     -10.42183304
Hf       7.73395757       8.56362805      19.52846040  T      -1.14742697      -0.38723992      -0.01416616       0.00824197      -0.00470278      -0.01463013     -10.39169121
Hf       9.77085574       3.77660927      23.15709808  T      16.33496492      -5.53842207     -10.42609485       0.04412755      -0.02796859       0.03292036      -9.56090450
Hf       7.72857311       8.50210519      23.27593981  T      -0.39053620       2.54602230      -4.19058616       0.00741160      -0.00883788      -0.03249355     -10.04987621
Sc      -0.00000000       1.40585887      13.99139690  F       0.00000000       0.00000000       0.00000000      -0.00770701       0.18958372       0.22938624      -7.20556307
Sc       1.93407357       6.35540581      13.99139690  F       0.00000000       0.00000000       0.00000000      -0.00101730      -0.62762463       0.67848074      -6.27022171
Sc      -0.01224367       1.41995518      17.66438110  T      -0.31830732      -0.57759224       0.60630840      -0.00438075      -0.01135385      -0.01209912      -7.19254923
Sc       1.93371169       6.37588898      17.65551572  T       0.64837875       0.09947339       0.22116436      -0.00898174      -0.00197084      -0.00890538      -7.17198896
Sc       0.16808373       1.42192603      21.47207261  T      -0.12058282      -1.12448335       0.88609827      -0.02566597      -0.00433590      -0.00003887      -6.93684244
Sc       1.93715169       6.42521769      21.22762396  T      -0.94313013       0.18050862      -0.63886211       0.00484402      -0.02303737       0.01333350      -7.21214914
Sc       3.86814713       1.40585887      13.99139690  F       0.00000000       0.00000000       0.00000000       0.00372869       0.19767448       0.22718298      -7.20539379
Sc       5.80222082       6.35540581      13.99139690  F       0.00000000       0.00000000       0.00000000       0.00080884      -0.62399232       0.66897058      -6.27404070
Sc       3.87975281       1.42249362      17.67035139  T       0.40152004      -0.16617390      -0.21684937       0.00879434      -0.02670991      -0.00755248      -7.19977379
Sc       5.82776091       6.37815155      17.64738272  T       0.01564887      -0.67937807       0.21183270      -0.02444765      -0.01971823       0.00158574      -7.16803312
Sc       3.68038766       1.42781167      21.43555084  T       0.02685988      -0.64539115       1.83850072       0.01247641      -0.00961746       0.00829730      -6.90708590
Sc       5.84020916       6.37268252      21.35330915  T      -0.56241588      -1.58701318      -1.48681272      -0.00467434      -0.00218333      -0.00801590      -7.29063606
Sc       7.73629427       1.40585887      13.99139690  F       0.00000000       0.00000000       0.00000000       0.00260646       0.19716915       0.22467609      -7.20730066
Sc       9.67036819       6.35540581      13.99139690  F       0.00000000       0.00000000       0.00000000       0.00024981      -0.62626386       0.66713351      -6.27152205
Sc       7.73849191       1.42137780      17.67950945  T       0.29461402      -0.53652402       0.37717399       0.00007670      -0.02176662       0.01195576      -7.20310497
Sc       9.64718169       6.37085641      17.65835429  T       0.13603539       0.28974959      -0.62821429       0.02037995       0.00489765      -0.02970525      -7.17688370
Sc       7.76284041       1.48721133      21.44483478  T       0.65206838      -1.02392638      -1.03798319       0.00586202      -0.00986563       0.02677776      -6.85339260
Sc       9.61171544       6.37142844      21.36266336  T       0.42898311      -1.38898076      -1.19826253       0.00137499       0.00713213      -0.01832616      -7.24573278
Si       1.93407357       0.80531353      12.12587738  F       0.00000000       0.00000000       0.00000000      -0.00059899      -1.00779796      -0.03150567      -4.51858044
Si      -0.00000000       4.12782955      13.99139690  F       0.00000000       0.00000000       0.00000000      -0.00242944       0.97684062      -0.23196819      -5.09157467
Si      -0.00000000       5.75486040      15.85691643  F       0.00000000       0.00000000       0.00000000      -0.04474267       0.07420017      -0.59617490      -6.48782110
Si       1.93322516       9.10246313      17.65878659  T       0.04319408      -0.30096167      -0.58737634       0.00407583      -0.00295404       0.01302446      -6.68354082
Si       1.93407357       0.80531353      15.85691643  F       0.00000000       0.00000000       0.00000000       0.01073616       0.04423013      -0.42157730      -6.42973995
Si      -0.02613763       4.15035828      17.69573676  T       0.48010963       0.26576323      -0.36984968       0.01784031      -0.01686412      -0.00451018      -6.57726908
Si      -0.03300845       5.79686031      19.48757698  T      -0.35222967      -0.27533956      -0.41369835       0.01437725       0.02725095      -0.00772144      -6.45302629
Si       1.94242753       9.11461359      21.38760197  T       0.12857914      -0.09945577      -0.02498987      -0.00870825       0.01040743       0.01862255      -6.55424976
Si       1.92518910       0.84474233      19.48211711  T      -0.17001207      -0.37459617      -0.08908311       0.00064616      -0.00112307      -0.01440432      -6.49847126
Si       0.03342446       4.16817977      21.30209527  T       0.87713385      -0.29723908      -0.14563244       0.03592838       0.01150272       0.01162973      -6.53945351
Si       0.09720461       5.73038816      23.13863138  T       0.62904668      -2.28008247       1.47193242      -0.02926877      -0.02074577      -0.02838928      -5.11871529
Si       1.93222195       9.17376199      24.98426737  T       0.07995012       1.63182673      -0.46774189       0.00719351       0.01779225       0.00696616      -4.59900475
Si       5.80222082       0.80531353      12.12587738  F       0.00000000       0.00000000       0.00000000       0.00094802      -0.98158216      -0.05791923      -4.51903963
Si       3.86814713       4.12782955      13.99139690  F       0.00000000       0.00000000       0.00000000       0.00236184       0.97772479      -0.23249172      -5.09108496
Si       3.86814713       5.75486040      15.85691643  F       0.00000000       0.00000000       0.00000000       0.03657193       0.07952954      -0.61800635      -6.48752165
Si       5.80435944       9.10592829      17.65238300  T      -0.27931834       0.71958128      -0.62855541       0.01030044      -0.00405896      -0.00735180      -6.67681217
Si       5.80222082       0.80531353      15.85691643  F       0.00000000       0.00000000       0.00000000       0.05718940       0.00395877      -0.33479476      -6.42301989
Si       3.89667276       4.15444700      17.69477605  T       0.15619077      -0.42768320       0.08136472       0.00225549      -0.03370332      -0.00200555      -6.58078861
Si       3.90764341       5.81265972      19.47602072  T      -0.21235389      -0.28202300      -0.03408422      -0.01814014      -0.02023549       0.00469459      -6.44488287
Si       5.83189343       9.09846089      21.41894478  T      -0.25554140      -0.21759614       0.04710866      -0.01360014       0.00687748      -0.00587695      -6.54520893
Si       5.80407916       0.88074447      19.52659774  T       0.34301936      -0.30148119       0.64112582      -0.00134725      -0.01395049       0.01288001      -6.50317287
Si       3.85540926       4.20818204      21.30376043  T      -0.04421174       0.08585713       1.12669984       0.00540145       0.02719378      -0.04881974      -6.51122761
Si       3.82905202       5.71824392      23.16803087  T      -0.55433072      -2.13180039       0.55175504       0.00122239       0.00648005       0.01989881      -4.95031261
Si       5.77871855       9.31389318      25.08636989  T       0.30660467       0.87258864      -0.81536955       0.01929706      -0.01555043       0.01159164      -4.64638853
Si       9.67036819       0.80531353      12.12587738  F       0.00000000       0.00000000       0.00000000      -0.00073806      -0.99724519      -0.04254678      -4.51827192
Si       7.73629427       4.12782955      13.99139690  F       0.00000000       0.00000000       0.00000000       0.00077921       0.98006570      -0.24259302      -5.08961010
Si       7.73629427       5.75486040      15.85691643  F       0.00000000       0.00000000       0.00000000       0.01655708       0.04463807      -0.66807073      -6.48983240
Si       9.66683308       9.10173648      17.65371456  T      -0.14396611      -0.03828518      -0.78222284       0.00646657       0.00394977      -0.00634828      -6.67772961
Si       9.67036819       0.80531353      15.85691643  F       0.00000000       0.00000000       0.00000000      -0.06257638      -0.01347141      -0.36069277      -6.42487001
Si       7.73666482       4.14594126      17.69970172  T       0.05813293      -0.06074328       0.27100962       0.02405872       0.01619705       0.00763168      -6.58380699
Si       7.72899845       5.78952504      19.53709214  T       0.15666620       0.25492377      -0.39582364       0.00797732       0.02461060       0.01004842      -6.46048355
Si       9.63817967       9.10185282      21.41844547  T       0.11135203       0.38278166      -0.29009892       0.01259812       0.00808769      -0.01024198      -6.55257654
Si       9.68086863       0.88229265      19.53033272  T       0.31452161      -0.25705088       0.45500260       0.00212634      -0.02742763      -0.00472795      -6.50523520
Si       7.74820685       4.27128456      21.53753414  T       0.23811417       0.72277991      -0.06745711      -0.01903953       0.01832683      -0.04525465      -6.19327831
Si       7.72832544       5.70685522      23.56228365  T       0.06590482       0.93139711      -1.14171253      -0.01597160       0.02844164       0.02770028      -5.50693035
Si       9.69847134       9.29233217      25.07614516  T      -0.23974549       0.73564798      -0.78706574      -0.00306056      -0.02043137       0.01717198      -4.64207172
N        9.01113496       4.97274479      24.79351177  T      -0.05262473      -3.35930212       5.50829751      -0.03989178      -0.04372639       0.03950463     -10.16977215
O        6.27434307       5.05923119      24.29677701  T     -16.87537837       5.44719996       7.34832147       0.02131176       0.01196671      -0.00604892      -7.96395350
H        9.74220361       5.63155320      25.07562902  T      -0.28209434       1.20526133       1.10610867      -0.03169987       0.02976055       0.04692198      -3.46131730
H        8.61485429       4.52570302      25.62809699  T      -0.24608866       0.33707500       0.25453790       0.03026535       0.01876971      -0.05665201      -3.46399379
H        1.98727649       1.84236359      22.60224143  T      -3.10048989      -0.24710977       0.31088668      -0.03859362       0.01034416      -0.02784157      -3.93327999
