77
Lattice="11.60444164276123 0.0 6.999999919513338e-16 -2.799999967805335e-15 9.899094581604004 3.73103928565979 0.0 0.0 33.57935333251953" Properties=species:S:1:pos:R:3:move_mask:L:1:momenta:R:3:forces:R:3:energies:R:1 adsorbate_info="_JSON {\"site\": {\"coordinates\": [7.73629427, 1.40585887, 21.45347595], \"connectivity\": 1, \"topology\": [34], \"n_vector\": [-0.10366760042460367, -0.3133081139227932, 0.943976193752971], \"h_vector\": [1.0, 0.0, 0.0], \"site_formula\": {\"Sc\": 1}}, \"smiles\": \"Cl\", \"mdf\": 1.7392171104391192, \"adsorbate_formula\": \"H3NO\"}" bond_change_count=3 energy=-686996160.0 stress="25083.28515625 4246.7421875 244.07029724121094 4246.7421875 16167.6572265625 3344.4921875 244.07029724121094 3344.4921875 10403.94140625" free_energy=-686996160.0 pbc="T T F"
Hf       1.93407357       3.56009269      15.85691643  F       0.00000000       0.00000000       0.00000000 -583332.75000000 -539559.50000000  793288.06250000       5.55187035
Hf      -0.00000000       8.50963974      15.85691643  F       0.00000000       0.00000000       0.00000000    2438.70458984     198.79711914   -5207.59863281      26.00564957
Hf       0.28831230      -0.89834299      21.12339691  T       0.21402597      -0.13252702      -0.95853807 -1339084.37500000 3573737.50000000 -4281884.00000000    1341.40197754
Hf       2.19727085       6.18217868      23.31067145  T       0.93246137       3.64093619       0.49920528     129.33087158    2800.38330078     545.05401611      -5.55069876
Hf      -1.55766946      -2.73733420      27.66872818  T       1.45151248       2.58029576      -3.05316681       6.05917788       4.58557892      -1.98426735      -4.98647022
Hf       0.64678998      12.28873643      23.71225288  T      -1.54482871      -3.89005444      -1.33133923 -35936260.00000000 -15231701.00000000 -17703044.00000000    4417.04296875
Hf       5.80222082       3.56009269      15.85691643  F       0.00000000       0.00000000       0.00000000  430474.71875000 -310244.71875000  333091.31250000      -7.63459015
Hf       3.86814713       8.50963974      15.85691643  F       0.00000000       0.00000000       0.00000000     141.25048828     583.68701172      73.88957214      -0.10740376
Hf      15.58860048       4.25872224      19.52008009  T      -0.66929619      -0.54341503       1.44291446   36204.54687500   23359.13867188    6141.26513672      -6.70037937
Hf       4.12467802       8.21056510      24.18363868  T       1.02798933       0.41216704      -1.11368616   14755.54199219    5434.13623047      82.59243774       0.07086658
Hf       8.77549225       0.84305376      18.71692187  T      -2.06405385       0.41968593      -1.86656674 1104713600.00000000 4301671.00000000 -383936416.00000000 9514119.00000000
Hf       9.11467147       1.32298624      29.89196221  T      -0.67987316       0.99881398      -0.69675177      -0.20883329      -0.43203962      -0.32220158      -3.32915497
Hf       9.67036819       3.56009269      15.85691643  F       0.00000000       0.00000000       0.00000000  321654.18750000 -550838.56250000 1554321.50000000     562.22033691
Hf       7.73629427       8.50963974      15.85691643  F       0.00000000       0.00000000       0.00000000   -3203.81225586   -1527.41296387   -6503.40380859      -7.13963795
Hf       9.36498077       0.68601568      17.44658186  T      -1.03865061       1.50134195      -2.20754147 -139671072.00000000 16799996.00000000 620375552.00000000  -45973.12500000
Hf       6.05971769      11.89136698      24.80104210  T      -1.35723380      -0.86268366      -3.03528480 1124310.00000000 -354254.34375000 -1210520.50000000     241.17597961
Hf      10.95021796       9.40444825      15.70954212  T       0.93293396       2.78256517      -2.45805471     967.58227539    3677.88647461   -6861.79687500      23.03037262
Hf      13.46034595       6.72392946      27.62063857  T       1.97825682      -1.65771321      -1.14691456     -69.58331299     562.60546875    1207.00488281      22.28120804
Sc      -0.00000000       1.40585887      13.99139690  F       0.00000000       0.00000000       0.00000000  207099.03125000  167819.60937500 -335977.34375000      42.33267212
Sc       1.93407357       6.35540581      13.99139690  F       0.00000000       0.00000000       0.00000000     -61.32540512     471.23471069    -361.13619995      -7.04225397
Sc      -1.57866859       0.87785988      18.67208006  T       0.45449533      -0.48963812       1.10055735 -747807488.00000000 5962966528.00000000 1832938496.00000000 -804793088.00000000
Sc       5.56448859       9.58205337      16.61552268  T       0.53554128       0.20774336      -0.56535906     943.72302246    6929.64208984    4729.85302734       6.84301329
Sc       2.85557397      -5.22101958      24.81295423  T       1.30128864      -0.29761004       0.08055866       6.66369486       9.39692783       4.05024529      -4.82331800
Sc      -0.33990274       0.58160827      20.75748381  T      -0.42130621       0.12056732       0.11100200 -12907487.00000000 13057002.00000000 -30555854.00000000   -5593.01074219
Sc       3.86814713       1.40585887      13.99139690  F       0.00000000       0.00000000       0.00000000    4403.98535156    2275.39575195   -2703.24365234      -4.70171642
Sc       5.80222082       6.35540581      13.99139690  F       0.00000000       0.00000000       0.00000000     911.83129883   -1480.43872070    1215.24218750      -5.52925968
Sc       4.85154903      -0.38788329      20.01076993  T      -0.54361838      -0.39126613       0.01191899  864146.93750000  277891.06250000 -247844.35937500      -1.12153625
Sc       3.75064212       8.33895157      17.29857268  T       0.18270267       0.57703504       0.71305566     -57.53477478     935.02478027   -1731.98803711       7.36256266
Sc       5.97403815      -1.33029497      27.09273102  T      -1.17286902       0.22755879      -0.60573016       3.00053906      -2.53247094      -4.16315174      -2.88653803
Sc       2.78072635      -2.99236987      24.53507085  T       0.56179073       0.07646449      -1.02412421     836.17291260    -635.12261963    1226.19702148      44.14272690
Sc       7.73629427       1.40585887      13.99139690  F       0.00000000       0.00000000       0.00000000 -143310.00000000   30019.62500000  -39407.78906250       0.09574413
Sc       9.67036819       6.35540581      13.99139690  F       0.00000000       0.00000000       0.00000000    -947.55932617   -7820.92236328    5855.44091797      -5.64599323
Sc       9.13363572       1.26299024      18.43661189  T       0.47778234      -0.31441752      -0.61117126 -288097152.00000000 -643756544.00000000 26368800.00000000 160076464.00000000
Sc      10.38432553       5.83356995      25.57474859  T       0.57353022      -0.12938995      -0.29259495    2752.16650391   -8981.37988281    1749.29870605      -3.70959091
Sc       7.94630803      -3.56111010      27.12823334  T      -0.16017017      -0.96763110      -3.90916526      -4.09221220       1.33251023      -5.45351505      -3.33585787
Sc      11.80320778       3.74334802      21.64814779  T      -0.10449234      -0.44389023       0.56645884 -743226.75000000 -2160935.75000000 -2484506.25000000      -5.95404339
Si       1.93407357       0.80531353      12.12587738  F       0.00000000       0.00000000       0.00000000    -792.69842529     402.81085205     260.58633423      -4.72575378
Si      -0.00000000       4.12782955      13.99139690  F       0.00000000       0.00000000       0.00000000   -5091.10058594   -1896.09130859   -1271.14746094      -5.23353958
Si      -0.00000000       5.75486040      15.85691643  F       0.00000000       0.00000000       0.00000000  -11008.69140625  -13215.83300781   -4284.49804688      -5.40794182
Si       4.19709785      12.67270164      18.99217693  T      -0.34718254       0.08936167      -1.18761853   -1416.35156250   14395.13574219   -3191.63989258       2.46689081
Si       1.93407357       0.80531353      15.85691643  F       0.00000000       0.00000000       0.00000000   -8357.21972656  235909.28125000  517287.59375000     214.95343018
Si      -0.38367899       2.77371451      19.06212817  T      -0.42872947       0.27545380      -0.09622870 -38466532.00000000 -60018408.00000000 -5510632.50000000 -486004.65625000
Si       1.83499765       4.09471651      21.60517576  T       0.09126177       0.20708935      -0.03835914 -600165.31250000 -640798.81250000 -680660.56250000       0.12581205
Si       5.31634018       3.94827220      24.95939801  T      -0.35082755      -0.42651994      -0.40128004    -343.62182617     152.49021912    1141.06225586      -1.74441624
Si      -1.92861598       0.37519821      18.54238521  T      -0.30466005      -0.72582490       0.02522378 90136624.00000000 1309013504.00000000 39766636.00000000 -26881358.00000000
Si       1.74013964       6.66066565      18.82504113  T       0.62249466      -0.61840001       0.80285573   19384.97460938   10455.61914062    -813.34332275      -4.41807461
Si      -7.12293112      -0.91034099      31.70480520  T       0.41261909      -2.07476525       1.03514989       0.14960021       0.02134625      -0.24027196      -1.06796074
Si      -1.75801371       3.42539780      21.59785173  T       0.66986609       1.04642640      -0.40008903  787374.68750000 -1756202.12500000 -2040045.87500000   -1160.43762207
Si       5.80222082       0.80531353      12.12587738  F       0.00000000       0.00000000       0.00000000    1275.34899902     833.70800781    5691.65820312       2.97237635
Si       3.86814713       4.12782955      13.99139690  F       0.00000000       0.00000000       0.00000000     237.37081909     250.21673584    -626.22406006      -3.67917681
Si       3.86814713       5.75486040      15.85691643  F       0.00000000       0.00000000       0.00000000     826.73248291     599.65289307    -688.77764893      -5.30966949
Si      13.67202879       4.18178271      14.62132679  T      -0.34373974       0.76013274      -0.96754494    7395.48046875   14220.80078125  -31368.86914062      10.78745079
Si       5.80222082       0.80531353      15.85691643  F       0.00000000       0.00000000       0.00000000 -963341.93750000 -162301.60937500 -1188738.62500000      30.97746277
Si       7.46992150       2.50217908      19.72430901  T       0.13937301      -0.08164052       0.11096440 -5947240.00000000 5618491.00000000 5078644.50000000  -53214.12500000
Si       0.20693173      -1.20383421      25.64882665  T      -0.04780892      -0.08669222       0.18883428    -717.40020752     592.17047119   -1591.43249512      -2.47812080
Si      11.46421838       7.63308503      24.19685347  T       0.14254545       0.51516146      -0.19103272   72195.57812500  877315.25000000   51117.28906250    -513.09851074
Si       6.75552208       1.03708145      20.62703095  T      -0.01814683      -0.50154326       0.00692595 -1246418.50000000  299753.37500000 2399585.75000000   -4233.46826172
Si       9.53641755       0.14155354      17.37212685  T      -0.20808918      -0.31492966       0.80022184 9313811.00000000 37876608.00000000 144766288.00000000 -1995425.12500000
Si       7.09003098       6.60740752      22.29686391  T       0.02215731      -2.41484040       0.05968811 -742923.31250000 -1036520.31250000  -12863.97167969      13.16401482
Si       5.45328655      11.73988385      22.16119872  T       0.12604059       0.89836206      -0.15140947 -2468195.00000000  644148.12500000 -242311.23437500    -173.65293884
Si       9.67036819       0.80531353      12.12587738  F       0.00000000       0.00000000       0.00000000    1450.45410156    4088.01220703   -4860.59765625      -3.05896235
Si       7.73629427       4.12782955      13.99139690  F       0.00000000       0.00000000       0.00000000   14542.46777344  -20959.19140625   50727.71484375      -0.92189598
Si       7.73629427       5.75486040      15.85691643  F       0.00000000       0.00000000       0.00000000   11892.23925781  -69498.98437500   20292.99218750      -1.57003546
Si       6.83553509      14.96452646      18.49664995  T       0.45433574       0.32727213      -0.99834509   11624.61035156   -5578.95605469   14060.62890625       8.28788567
Si       9.67036819       0.80531353      15.85691643  F       0.00000000       0.00000000       0.00000000 5252041.50000000 -368584.90625000 -5030648.50000000  -12910.23535156
Si      11.41705962       2.91434747      18.38894891  T      -0.50363710      -0.07779433      -0.45301295 -35031176.00000000 -47080264.00000000 17568144.00000000 -210106.92187500
Si       5.43887063      -2.35389127      15.09833375  T       0.34807165       0.24405607      -0.27179599    2709.65283203   -6721.76562500   -4024.73364258      -4.26014423
Si      13.96979920       4.77783444      11.82729640  T       0.19470386      -0.06423085       0.00074123     -33.12513733      29.01710129     -13.76320934      -3.02841616
Si       9.76388589       0.95075383      18.67886386  T       0.45817958      -0.32917851       0.27241010 3664714240.00000000 -1754686720.00000000 -1086158208.00000000 -22171732.00000000
Si      10.20321422       0.98104556      18.73595330  T       0.50665076      -0.43969649       0.51151658 -3569054464.00000000 -4840021504.00000000 -1137794048.00000000 -350309.12500000
Si       9.84968198       4.82212489      18.74903594  T       0.27462182      -2.20158128       1.08062414  783090.12500000 -908581.12500000  411526.21875000    -877.02825928
Si       5.80944218      10.89115338      20.21418881  T       0.15474282       1.03244687       0.08204419 -1438836.62500000  140417.64062500 -536707.75000000     -50.20975876
N       11.75306473       2.61635129      22.67602978  T      -2.01472262       1.92467428       6.31117154  264193.59375000  424670.15625000 1449206.25000000     -64.88043976
O       11.57242549       2.65585503      21.92787169  T       0.42887806       2.88253412      -0.36248507   84225.90625000 1488799.12500000 4463498.50000000   -2361.66357422
H       19.04657930       8.34529379      27.55496811  T       0.01523920      -0.14488788       0.70733150     -36.92206573    -378.58132935     420.54220581      -3.10662317
H        7.18586494      -2.27457294      24.38796311  T      -0.09283978       0.34921725       0.20724366     -12.02536964     -10.84184742      13.98501587      -3.23230624
H       10.28905703       0.13793287      20.49195500  T       0.04420154      -0.31187191      -0.42776096 4015127.25000000 11835178.00000000 -18883900.00000000  421799.31250000
