77
Lattice="11.60444164276123 0.0 6.999999919513338e-16 -2.799999967805335e-15 9.899094581604004 3.73103928565979 0.0 0.0 33.57935333251953" Properties=species:S:1:pos:R:3:move_mask:L:1:momenta:R:3:forces:R:3:energies:R:1 adsorbate_info="_JSON {\"site\": {\"coordinates\": [2.9309692133448205e-08, 3.16346845, 22.386235235], \"connectivity\": 4, \"topology\": [4, 16, 22, 45], \"n_vector\": [-4.0869190140191895e-08, -0.22793902635703844, 0.9736754080613331], \"h_vector\": [-1.0, 0.0, 0.0], \"site_formula\": {\"Hf\": 2, \"Sc\": 1, \"Si\": 1}}, \"smiles\": \"S1S\", \"mdf\": 1.206658001889299, \"adsorbate_formula\": \"H3NO\"}" bond_change_count=1 energy=-549.3145751953125 stress="0.0002227542136097327 -5.5654400057392195e-06 8.396744306082837e-06 -5.5654400057392195e-06 0.00026770750992000103 3.797165481955744e-05 8.396744306082837e-06 3.797165481955744e-05 8.677083678776398e-05" free_energy=-549.3145751953125 pbc="T T F"
Hf       1.93407357       3.56009269      15.85691643  F       0.00000000       0.00000000       0.00000000       0.03276614       0.05294427       0.43087107     -10.30185986
Hf      -0.00000000       8.50963974      15.85691643  F       0.00000000       0.00000000       0.00000000      -0.02101588       0.32232335       0.01627997      -9.61217880
Hf       1.94048906       3.60487199      19.54765981  T      -3.23889432      -0.86581346       0.58297332      -0.00412204      -0.02531669      -0.01315037     -10.37110138
Hf       0.00531545       8.56881057      19.52636444  T       1.67602431       1.46589945      -0.41400154      -0.00757871       0.03228882       0.01233788     -10.38983727
Hf       1.82518907       3.77103371      23.22767266  T       1.97990922      -0.03804624      -2.70391191      -0.06774974       0.01676774       0.00726186     -10.25760746
Hf      -0.01498286       8.52188579      23.21961356  T       0.67163602      -2.42132546      -1.91980994       0.01216885      -0.01199761       0.00590035     -10.15220451
Hf       5.80222082       3.56009269      15.85691643  F       0.00000000       0.00000000       0.00000000      -0.00890621       0.04204991       0.40246654     -10.30023956
Hf       3.86814713       8.50963974      15.85691643  F       0.00000000       0.00000000       0.00000000       0.02409122       0.31922811       0.00113267      -9.61289978
Hf       5.81524762       3.58313316      19.58184674  T      -1.03638410       3.39269065      -0.52139264       0.01118359       0.01259047      -0.01022831     -10.38427925
Hf       3.86348954       8.55891590      19.53736670  T       0.43561743      -0.09098361       0.43951289       0.03381876       0.02396356      -0.00892075     -10.37523556
Hf       5.80684376       3.76250440      23.11571690  T       0.54781663       3.47694957      -3.48907002      -0.01155052      -0.02258122       0.02667287      -9.14553833
Hf       3.87367801       8.48698995      23.24295439  T      -2.15061754       2.84501754      -1.68187008      -0.03844701       0.01438001      -0.00244588     -10.14773560
Hf       9.67036819       3.56009269      15.85691643  F       0.00000000       0.00000000       0.00000000      -0.01177623       0.05535275       0.42615014     -10.30416489
Hf       7.73629427       8.50963974      15.85691643  F       0.00000000       0.00000000       0.00000000      -0.01784252       0.31999815       0.00003883      -9.61266422
Hf       9.66738064       3.60067269      19.53577272  T       0.43292868      -1.41937500       0.66437775       0.00509337      -0.01615246      -0.00441891     -10.37548065
Hf       7.73625737       8.55352943      19.54171584  T      -1.43218991      -1.07148465      -0.78982769      -0.01208704       0.01892388      -0.05119203     -10.37418365
Hf       9.83301609       3.77059498      23.30245583  T      -1.27413215       1.92426253      -2.35980859      -0.02137852      -0.01220512      -0.03563191     -10.26567650
Hf       7.75103939       8.48048580      23.22113709  T      -2.23380790       1.55031992      -2.32177985      -0.00338456      -0.01214138       0.00391082     -10.16639137
Sc      -0.00000000       1.40585887      13.99139690  F       0.00000000       0.00000000       0.00000000       0.00017558       0.18996957       0.22620966      -7.20290565
Sc       1.93407357       6.35540581      13.99139690  F       0.00000000       0.00000000       0.00000000       0.00137907      -0.62382793       0.67333835      -6.27133608
Sc       0.00783205       1.41439512      17.68092184  T      -0.46075382      -0.41880615      -1.10342597       0.00719957      -0.00213540      -0.00780310      -7.20849514
Sc       1.94168729       6.37008249      17.65637795  T      -0.16357672       0.01664151      -1.02329309      -0.00707506       0.00162467      -0.01320706      -7.17379570
Sc       0.03833003       1.41483181      21.45398928  T      -0.28649482      -1.18496725       0.42789950       0.03550581      -0.04802255       0.04837434      -6.91180229
Sc       1.96043003       6.38259401      21.32308946  T       0.72659367      -1.06022629      -1.09837939      -0.00865442       0.00167266      -0.00327139      -7.21669626
Sc       3.86814713       1.40585887      13.99139690  F       0.00000000       0.00000000       0.00000000       0.00389556       0.17645252       0.23123682      -7.20215845
Sc       5.80222082       6.35540581      13.99139690  F       0.00000000       0.00000000       0.00000000       0.00037750      -0.62485802       0.67111695      -6.26901102
Sc       3.85433411       1.40092162      17.69552596  T      -1.42239414      -0.21519590       0.83675576       0.03060722       0.00799231      -0.02446008      -7.21207762
Sc       5.80854550       6.36384815      17.66088457  T       0.18989733      -0.49398688      -0.74410671      -0.01007979      -0.00262132       0.00787483      -7.17885780
Sc       3.94743073       1.42886914      21.39991819  T       1.46203173       0.30181568       0.72154014      -0.01566850      -0.01138027       0.00559346      -6.82765245
Sc       5.81490253       6.39535545      21.33495447  T       0.05167572       0.06081126      -0.73129744      -0.00114248       0.01058806      -0.00324260      -7.21925879
Sc       7.73629427       1.40585887      13.99139690  F       0.00000000       0.00000000       0.00000000      -0.00622179       0.17842376       0.23295134      -7.20543385
Sc       9.67036819       6.35540581      13.99139690  F       0.00000000       0.00000000       0.00000000      -0.00096903      -0.62457263       0.67309600      -6.27077007
Sc       7.73972658       1.40713686      17.67529020  T       0.22941128       0.24954458      -0.43931853       0.00055979      -0.00832260      -0.03154164      -7.19449139
Sc       9.66431505       6.37017527      17.65730160  T       1.43044990      -0.60242269      -1.19193795       0.00878950       0.00562109      -0.01992670      -7.17607260
Sc       7.71694782       1.40207571      21.43434487  T       0.20384572       0.77183841      -0.15309703      -0.01937370       0.00095124       0.00504884      -6.85042000
Sc       9.65484550       6.36564136      21.33201759  T      -0.36995784       0.12382747      -0.68025596       0.02454146       0.02491520      -0.00677837      -7.21758270
Si       1.93407357       0.80531353      12.12587738  F       0.00000000       0.00000000       0.00000000       0.00256304      -1.00022399      -0.03980693      -4.51887941
Si      -0.00000000       4.12782955      13.99139690  F       0.00000000       0.00000000       0.00000000       0.00096017       0.97618300      -0.23510738      -5.09003496
Si      -0.00000000       5.75486040      15.85691643  F       0.00000000       0.00000000       0.00000000       0.00078564       0.07924089      -0.60909671      -6.48823214
Si       1.93530510       9.09978794      17.65390466  T      -0.01009390       0.29798513      -0.51790427       0.00957976       0.00308631       0.00928895      -6.68032265
Si       1.93407357       0.80531353      15.85691643  F       0.00000000       0.00000000       0.00000000       0.01687285      -0.02046302      -0.31675017      -6.42734623
Si       0.00196358       4.15042424      17.69375481  T      -0.26882729      -0.17160590      -0.09166790       0.00846959      -0.01288716       0.03484498      -6.58582973
Si       0.00176263       5.81031428      19.49937374  T       0.43351913      -0.38580261      -0.18842116       0.00207413      -0.04784363       0.01545256      -6.45890427
Si       1.93631988       9.10118034      21.41974716  T      -0.31271231       0.21632886      -0.55188031      -0.00021892       0.04022055      -0.01491673      -6.55433273
Si       1.93114484       0.85051906      19.56801924  T       0.22705602      -0.20851908       0.79305016       0.00657910      -0.01725339      -0.00791992      -6.48559570
Si      -0.00364322       4.22075433      21.33005147  T       0.02900358       0.17637664       0.60117271       0.01433870       0.05954791      -0.02314422      -6.39725161
Si       0.01787566       5.79143889      23.20072903  T       0.08765989       0.18743564      -0.53450038       0.01092941       0.04133821      -0.05499643      -5.39422178
Si       1.91388843       9.19311580      25.10850126  T      -0.06943614       1.01181531      -0.35109689       0.02574229       0.01302525      -0.02534387      -4.43758869
Si       5.80222082       0.80531353      12.12587738  F       0.00000000       0.00000000       0.00000000       0.00050355      -1.02632725      -0.00874659      -4.51749086
Si       3.86814713       4.12782955      13.99139690  F       0.00000000       0.00000000       0.00000000       0.00160671       0.97779095      -0.23342054      -5.09100723
Si       3.86814713       5.75486040      15.85691643  F       0.00000000       0.00000000       0.00000000       0.02992502       0.02623411      -0.57596868      -6.48696470
Si       5.80242205       9.09832710      17.66216238  T       0.20455086       0.61162723      -0.82319550      -0.00441541       0.00401094      -0.02476067      -6.68172932
Si       5.80222082       0.80531353      15.85691643  F       0.00000000       0.00000000       0.00000000      -0.03731845      -0.02579936      -0.30694315      -6.42328835
Si       3.87602781       4.13277557      17.70571253  T      -0.18460694      -0.22436355      -0.02090253       0.02684394       0.01286881      -0.03629044      -6.58573818
Si       3.87687273       5.78045002      19.50390634  T       0.05291904      -0.26916101      -0.59982583       0.01085670       0.01530318       0.01869352      -6.45735359
Si       5.80332845       9.10438370      21.41423717  T       0.17877169       0.39578840      -0.15985770      -0.02168227      -0.01401213       0.01257694      -6.55778503
Si       5.81575508       0.84881321      19.51488630  T       0.26974172      -0.62762506       0.25091155       0.01257193      -0.02112150       0.00220657      -6.52958918
Si       3.86419838       4.17063939      21.38661981  T       0.23613339       0.03536942       0.76131969      -0.02690406      -0.00976414      -0.03725047      -6.56115437
Si       3.89155753       5.68577521      23.26254439  T       0.33049292      -1.88162387       0.85127860      -0.01590999       0.05997873       0.00963384      -5.21953964
Si       5.81762476       9.23694538      25.06479487  T      -0.19326616       1.49843381      -0.17183296       0.00855894       0.01207623       0.00258310      -4.65088558
Si       9.67036819       0.80531353      12.12587738  F       0.00000000       0.00000000       0.00000000      -0.00407387      -1.01214838      -0.02583876      -4.51870823
Si       7.73629427       4.12782955      13.99139690  F       0.00000000       0.00000000       0.00000000      -0.00199128       0.97781241      -0.23419262      -5.09085512
Si       7.73629427       5.75486040      15.85691643  F       0.00000000       0.00000000       0.00000000      -0.00972110       0.03848720      -0.59844041      -6.48670483
Si       9.66385827       9.10180876      17.65974054  T       0.27556144       0.06349455      -0.69950337       0.03922327      -0.00730640      -0.01983602      -6.67883778
Si       9.67036819       0.80531353      15.85691643  F       0.00000000       0.00000000       0.00000000       0.01515516      -0.01691241      -0.35030127      -6.42617893
Si       7.73015916       4.13500925      17.70099545  T      -0.18766497       0.62251454       0.16201478       0.00248732       0.02436254      -0.03512622      -6.58462667
Si       7.74215396       5.77102165      19.51223517  T       0.23725399      -0.11499925      -0.20240781      -0.01820234       0.01751327       0.00884999      -6.45760012
Si       9.67438859       9.09428714      21.40060150  T      -0.05170810      -0.22382290      -0.26505404      -0.02450421       0.02855786       0.01459401      -6.55632067
Si       9.66613876       0.85949324      19.51568581  T      -0.50687621      -0.61001928      -0.34524453      -0.00081994      -0.02786891       0.00265878      -6.51008987
Si       7.77715183       4.14957575      21.41341182  T      -0.38192601       0.30228453       0.64558363       0.02179470      -0.00319308      -0.04954128      -6.54673147
Si       7.73688227       5.67118423      23.27610668  T      -1.30232038      -1.61573809       0.96645197       0.01710935       0.05000630       0.01255031      -5.22119284
Si       9.67097853       9.26363246      25.06598443  T       0.30800036       1.91483662      -0.97628674      -0.03074190       0.01055247      -0.00361364      -4.62740898
N        0.03979841       4.21297788      24.15071092  T       0.52701046      -1.23395350      -0.30146556       0.05886275      -0.03195053      -0.01647905      -8.17468071
O       -0.96174566       2.84093077      26.77072688  T      -0.40508544       1.03916876       4.81292471      -0.01762766      -0.03975067      -0.03894885      -7.35628462
H        1.24568891       0.24735395      22.48257008  T       0.77241267      -2.37267936      -0.53209549       0.00071906       0.03193182       0.00014915      -4.01930475
H       -0.73705501       3.67103659      27.22641619  T      -2.12061100      -0.66264274       0.37664193      -0.04183248       0.00857455      -0.06371646      -3.40488315
H       -0.12430619       2.56107984      26.36295693  T      -0.15062747       0.15498468       0.02634950      -0.02627856       0.04323643      -0.02922942      -3.41538954
