49
Lattice="11.863972663879395 0.0 -0.190369114279747 -2.7065036296844482 9.11697769165039 -0.3595939874649048 0.0 0.0 33.15761184692383" Properties=species:S:1:pos:R:3:move_mask:L:1:momenta:R:3:forces:R:3:energies:R:1 adsorbate_info="_JSON {\"site\": {\"coordinates\": [3.30229592, 4.82822943, 18.93536949], \"connectivity\": 1, \"topology\": [7], \"n_vector\": [0.4668075023037752, 0.3944171531707965, 0.7915338685599974], \"h_vector\": [1.0, 0.0, 0.0], \"site_formula\": {\"Ga\": 1}}, \"smiles\": \"Cl\", \"mdf\": 1.37564972886066, \"adsorbate_formula\": \"H\"}" bond_change_count=0 energy=-249.93048095703125 stress="0.0003457605780567974 2.5351335352752358e-05 1.6548253825021675e-06 2.5351335352752358e-05 0.0003268576692789793 -2.739057435974246e-06 1.6548253825021675e-06 -2.739057435974246e-06 0.00010893651779042557" free_energy=-249.93048095703125 pbc="T T F"
Ga       3.26138246       2.80080545      15.24897577  T      -1.08886153       0.85481145       0.31700021       0.00456506      -0.01538961      -0.03196052      -3.28875303
Ga      -1.10344553       6.34772587      13.41262531  F       0.00000000       0.00000000       0.00000000       0.15105470      -0.01813167      -0.34023622      -3.10425854
Ga       3.18696737       0.77623945      11.74798393  F       0.00000000       0.00000000       0.00000000       0.26176786       0.14936788       0.27306318      -2.58191586
Ga       4.78001213       1.24975562      13.82387161  F       0.00000000       0.00000000       0.00000000       0.14947486      -0.06559464      -0.43954465      -3.26492500
Ga       0.43193507       4.79524708      11.89482021  F       0.00000000       0.00000000       0.00000000      -0.10877113      -0.30710721       0.11067083      -2.55135989
Ga       0.50220175       6.84121629      15.40276081  T      -0.75244156       0.51357588      -0.67170612       0.00695655      -0.01898242       0.01288762      -3.30784559
Ga       1.74638107       1.44767368      20.72142027  T       0.53226483       1.02426958      -0.37668136      -0.00121635      -0.02085704      -0.02494174      -2.58689761
Ga       3.26940786       4.79107289      18.68109682  T      -1.55583175      -2.27067379      -1.12884963       0.07491964      -0.03256283       0.02576935      -3.27255726
Ga      -1.05314646       8.34064185      16.96849561  T      -1.79200611      -0.06995692      -0.23462973       0.00598319      -0.01872521       0.00543315      -3.30855036
Ga       0.50097798       8.78585559      19.05405585  T       0.14096969       0.76727694      -0.92233034      -0.01166179       0.01480385      -0.02225287      -3.11464262
Ga       4.84305279       3.23206780      17.31490618  T      -0.35015909      -0.89886696       0.18695635      -0.01130120       0.01153037       0.02717591      -3.29570389
Ga      -1.11904294       5.18933842      20.81773711  T      -1.14609029       0.50890941      -0.82110122      -0.04793468      -0.02763321      -0.01299727      -2.68369389
Ga       9.19470918       2.79863514      15.16281541  T       0.85154355       0.29686102       1.17593000      -0.01305091      -0.00906990      -0.04843133      -3.28972268
Ga       4.82854080       6.34772587      13.31744099  F       0.00000000       0.00000000       0.00000000       0.14798957      -0.01356726      -0.31904620      -3.10381317
Ga       9.11895370       0.77623945      11.65279961  F       0.00000000       0.00000000       0.00000000       0.26048595       0.14852455       0.27526420      -2.58236194
Ga      10.71199894       1.24975562      13.72868633  F       0.00000000       0.00000000       0.00000000       0.13709401      -0.06673594      -0.43496084      -3.26631689
Ga       6.36392164       4.79524708      11.79963493  F       0.00000000       0.00000000       0.00000000      -0.10763155      -0.30738413       0.10857640      -2.55059052
Ga       6.43014064       6.84127559      15.31393472  T      -0.07116159      -1.33944882      -0.86011799      -0.00438152      -0.00546997       0.01473186      -3.30914855
Ga       7.66757517       1.31046472      20.61181914  T       0.51211084      -0.64063604      -0.75110617       0.00189219       0.04023157      -0.02428587      -2.61015964
Ga       9.19321278       4.80812893      18.60867938  T      -1.17643591      -0.00069854      -0.14419507       0.01687676      -0.00690809       0.02821019      -3.24883199
Ga       4.87785848       8.33600746      16.92685124  T       0.38739891       0.17347630      -0.96957697      -0.01672416      -0.03243394      -0.01612364      -3.30397224
Ga       6.46061882       8.71062899      19.00142784  T       0.77112231       0.05411231      -0.94671952      -0.02872670       0.01555150      -0.00731265      -3.07787538
Ga      10.76317138       3.25907346      17.22214887  T       0.42552527       1.42370526      -0.00828650      -0.00017703      -0.01996148       0.01040701      -3.30015564
Ga       4.87777367       5.12183754      20.69608179  T      -0.65370591       0.19469909       1.42751815      -0.02689440       0.00473250      -0.03318410      -2.69775558
Y        0.36285898       3.77798924      14.73479207  T      -0.91300137      -1.01302767      -0.00261282       0.01997924      -0.00159128       0.00500712      -7.56720400
Y        1.90320456       7.35664511      12.79558849  F       0.00000000       0.00000000       0.00000000      -0.12695383       0.13564749      -0.12507437      -7.14475393
Y        0.26163101       1.78515875      11.22613144  F       0.00000000       0.00000000       0.00000000      -0.14752795       0.05003452       0.84664047      -6.35839987
Y        1.77336216       0.24083631      14.44090843  F       0.00000000       0.00000000       0.00000000      -0.17308439       0.07421362      -0.16645294      -7.52529812
Y        3.35727143       3.78632760      12.41667271  F       0.00000000       0.00000000       0.00000000       0.03566802       0.06942587      -0.07117957      -7.15281963
Y        3.39207514       5.81877755      15.88044044  T      -0.59638547      -0.23098401       1.37418164      -0.00140178       0.01485712       0.00135377      -7.54041386
Y        4.71857290       2.15720647      20.14155694  T      -0.55800325      -2.12025773      -0.17268623       0.02589522       0.00766039      -0.01598296      -7.13398361
Y        0.42404245       5.82169095      18.23384750  T       0.48973426      -2.36902243       0.08061093      -0.00920891       0.03168169       0.01993541      -7.49858189
Y        4.68907601       0.19289322      16.75013323  T      -0.71969795      -1.57457753      -0.18897132       0.04266436       0.03035596       0.00251396      -7.56674194
Y        3.47715407       7.66926329      19.66741529  T      -1.01918512      -0.67737593      -0.53836907       0.00800457      -0.04344458      -0.04564337      -7.35647964
Y        1.78667693       2.25573956      17.84963869  T      -0.27008125      -1.32370784      -1.72928851      -0.04913586       0.00288601       0.00962966      -7.55191803
Y        1.92548539       4.51549344      21.18755389  T       0.05094622      -0.73939695      -3.54385922       0.02150394       0.00289704      -0.03417745      -6.79008055
Y        6.29865443       3.78258307      14.63884093  T      -1.21750913      -0.20901203       0.28626781       0.02101967      -0.01545733       0.01185075      -7.57121181
Y        7.83519077       7.35664511      12.70040417  F       0.00000000       0.00000000       0.00000000      -0.13585648       0.13500412      -0.11540554      -7.14439201
Y        6.19361734       1.78515875      11.13094711  F       0.00000000       0.00000000       0.00000000      -0.14669934       0.04994177       0.84705251      -6.35843468
Y        7.70534849       0.24083631      14.34572411  F       0.00000000       0.00000000       0.00000000      -0.16627032       0.06408623      -0.09930169      -7.52345514
Y        9.28925800       3.78632760      12.32148743  F       0.00000000       0.00000000       0.00000000       0.03569784       0.06505797      -0.05797656      -7.15130901
Y        9.33618295       5.83081905      15.78563750  T       0.80885392      -0.35779431      -0.66259594      -0.04325607      -0.00957228       0.02909969      -7.54623127
Y       10.64100013       2.20098139      20.04161854  T       1.02037835      -0.28624572      -0.30368577       0.00965947      -0.02946781      -0.01616986      -7.12477779
Y        6.37299711       5.80266287      18.12881108  T       0.21827304      -0.18251561       0.13872605      -0.00242056      -0.00793566       0.01535429      -7.49268293
Y       10.60689865       0.20479061      16.65874766  T       0.53619970       0.27541169      -0.20082669       0.02565554       0.01502686      -0.01006164      -7.56059647
Y        9.48561208       7.81286991      19.45430949  T       0.50682355      -2.00090232       0.80831324      -0.01100707       0.00273229      -0.04056819      -7.13380241
Y        7.72508103       2.26317962      17.77694828  T      -1.58014228      -0.45461440      -0.30845108      -0.04279711       0.00394586      -0.00205292      -7.53598881
Y        7.83068183       4.27868394      21.07271017  T       0.72505343       1.85622136      -0.57351752      -0.00903119      -0.01463178      -0.05283934      -6.50336838
H        2.28415076       6.65403152      21.16681844  T      -0.50687883       1.48223842       0.88120550      -0.02168616      -0.03158170      -0.07246312      -3.39586949
