49
Lattice="11.863972663879395 0.0 -0.190369114279747 -2.7065036296844482 9.11697769165039 -0.3595939874649048 0.0 0.0 33.15761184692383" Properties=species:S:1:pos:R:3:move_mask:L:1:momenta:R:3:forces:R:3:energies:R:1 adsorbate_info="_JSON {\"site\": {\"coordinates\": [5.381822666666664, 6.156904383333335, 16.57400926], \"connectivity\": 3, \"topology\": [17, 29, 43], \"n_vector\": [-0.544439451493881, -0.34754499285729235, 0.7634121832908267], \"h_vector\": [0.7818046773019329, 0.006706652705739207, 0.6234873433826104], \"site_formula\": {\"Ga\": 1, \"Y\": 2}}, \"smiles\": \"S1S\", \"mdf\": 1.8914828379093787, \"adsorbate_formula\": \"H\"}" bond_change_count=0 energy=-250.11050415039062 stress="0.00033992421231232584 2.475846849847585e-05 -1.6977920722638373e-06 2.475846849847585e-05 0.00032745435601100326 5.554879862756934e-07 -1.6977920722638373e-06 5.554879862756934e-07 0.0001262902223970741" free_energy=-250.11050415039062 pbc="T T F"
Ga       3.27562866       2.79155998      15.27375430  T      -0.09538907      -0.00887392      -1.29219401       0.00813940       0.02821644       0.02116786      -3.27975297
Ga      -1.10344553       6.34772587      13.41262531  F       0.00000000       0.00000000       0.00000000       0.07804491      -0.05443351      -0.38388723      -3.09379268
Ga       3.18696737       0.77623945      11.74798393  F       0.00000000       0.00000000       0.00000000       0.25416395       0.15198541       0.26957613      -2.58097529
Ga       4.78001213       1.24975562      13.82387161  F       0.00000000       0.00000000       0.00000000       0.15532272      -0.07143456      -0.35693517      -3.25513649
Ga       0.43193507       4.79524708      11.89482021  F       0.00000000       0.00000000       0.00000000      -0.10962865      -0.31146568       0.14360170      -2.55036974
Ga       0.46259507       6.82982648      15.38341911  T       1.25810333       0.58880216       0.62168121       0.00691208       0.03014830       0.06020281      -3.28924489
Ga       1.72975995       1.45555342      20.76683210  T       0.44916384      -0.46226042      -1.42399502      -0.03173713      -0.03588500      -0.01351303      -2.60652113
Ga       3.28712004       4.70721033      18.77061723  T       0.10096529      -0.29200091       1.14450400       0.06331919       0.01831038       0.01287462      -3.24713254
Ga      -1.07073546       8.37013245      17.00467749  T       1.48026761       0.46062103       0.99498172       0.04299549      -0.04479299      -0.00029075      -3.31133032
Ga       0.46985081       8.83091933      19.16102117  T      -0.19756853      -0.77305781       0.05196516      -0.02825915      -0.05298621      -0.06218034      -3.07032895
Ga       4.85331026       3.20847178      17.35295798  T      -0.46575262       1.23799195       0.94749012      -0.04658118       0.01667608      -0.07137550      -3.28799200
Ga      -1.09709886       5.19505576      20.80886125  T       0.20284570       0.66040314      -2.10625171      -0.02668219       0.04065816      -0.00519331      -2.70581412
Ga       9.21027391       2.81564719      15.16307787  T       0.40583506      -1.20431960       0.03625444      -0.00424802       0.00798877       0.01950299      -3.29172397
Ga       4.82854080       6.34772587      13.31744099  F       0.00000000       0.00000000       0.00000000       0.13531321      -0.00439430      -0.18631876      -3.10421777
Ga       9.11895370       0.77623945      11.65279961  F       0.00000000       0.00000000       0.00000000       0.26085889       0.15514417       0.27872977      -2.57788038
Ga      10.71199894       1.24975562      13.72868633  F       0.00000000       0.00000000       0.00000000       0.14794618      -0.05067453      -0.43585390      -3.26344728
Ga       6.36392164       4.79524708      11.79963493  F       0.00000000       0.00000000       0.00000000      -0.10880445      -0.32217973       0.13822842      -2.55179238
Ga       6.46149697       6.83062335      15.31661826  T      -1.14232204       0.14043515       1.28696759      -0.04066008       0.02463997       0.01681837      -3.29812622
Ga       7.68624062       1.39803047      20.61078608  T       0.35159903       0.38387533       0.14167710      -0.04589264      -0.02703954      -0.00332052      -2.61942768
Ga       9.19667251       4.84363034      18.63255301  T       0.21382481      -0.40661877       0.69139935       0.04187041      -0.02444227      -0.05213688      -3.23862410
Ga       4.99882716       8.39361675      16.88796812  T       0.22720128       1.16820444       0.03414307      -0.00239414      -0.01407556      -0.02682894      -3.30945778
Ga       6.48800036       8.75598758      19.04148470  T       0.07932825      -0.47680223      -0.55243665      -0.02203199      -0.01730744      -0.07653604      -3.08224201
Ga      10.79769652       3.31044287      17.26967737  T       0.71836592       0.49703042       0.49170644      -0.06282265       0.01229058      -0.02671206      -3.30282402
Ga       4.82017852       5.20148481      20.77408723  T      -0.96236761       0.53800751      -0.86390652      -0.03214470       0.02228346      -0.06861004      -2.66721916
Y        0.37795129       3.76996967      14.76071719  T      -0.09958149       0.62623802       1.14746696      -0.00597384       0.00016896      -0.04013802      -7.56984901
Y        1.90320456       7.35664511      12.79558849  F       0.00000000       0.00000000       0.00000000      -0.12617202       0.12646377      -0.11605316      -7.13793230
Y        0.26163101       1.78515875      11.22613144  F       0.00000000       0.00000000       0.00000000      -0.14474565       0.04714150       0.84930611      -6.35201740
Y        1.77336216       0.24083631      14.44090843  F       0.00000000       0.00000000       0.00000000      -0.14679313       0.10009460      -0.12204272      -7.52168989
Y        3.35727143       3.78632760      12.41667271  F       0.00000000       0.00000000       0.00000000       0.03901311       0.04895781      -0.00123096      -7.14277363
Y        3.40006505       5.87623203      15.97692088  T      -1.43139583      -0.00773862       1.20105989      -0.01842604      -0.00133221      -0.00811440      -7.61102057
Y        4.71159129       2.22376456      20.19760429  T      -0.43013650       0.99856238       1.38041035       0.02838182       0.00565193      -0.01031604      -7.11709690
Y        0.50860442       5.92088821      18.25832774  T       1.35623701      -0.57044697      -0.64084909       0.00430686       0.02789536      -0.07616842      -7.52769136
Y        4.67457414       0.12577169      16.82307093  T      -2.07487354      -0.31973311       1.41726277       0.03782663      -0.01023035      -0.03303387      -7.61086559
Y        3.55185004       7.77790866      19.48553870  T      -0.95797814       0.42777699      -0.42673515      -0.04442361      -0.01577676      -0.02380954      -7.24695587
Y        1.77086638       2.27413938      17.89882215  T       0.10761539       0.62435555      -0.80668395       0.01967878      -0.01955050      -0.00649843      -7.54758835
Y        1.86439592       4.37794068      21.20620878  T       0.55075305      -0.38354540      -1.25533048       0.01580624      -0.04595745       0.04260509      -6.50547409
Y        6.27739282       3.79188962      14.66567644  T       0.61659471       0.11063783       1.10056225       0.01254173      -0.00556124      -0.01314503      -7.57580662
Y        7.83519077       7.35664511      12.70040417  F       0.00000000       0.00000000       0.00000000      -0.11960554       0.12600484      -0.11994325      -7.13997746
Y        6.19361734       1.78515875      11.13094711  F       0.00000000       0.00000000       0.00000000      -0.15361868       0.04507928       0.85972118      -6.35105228
Y        7.70534849       0.24083631      14.34572411  F       0.00000000       0.00000000       0.00000000      -0.13673025       0.09513962      -0.13020515      -7.52790070
Y        9.28925800       3.78632760      12.32148743  F       0.00000000       0.00000000       0.00000000       0.04017564       0.06742672      -0.04705776      -7.15285015
Y        9.33600412       5.83338653      15.81123137  T      -1.06554600      -1.09142444       0.38716490      -0.00904578       0.00112301       0.00530493      -7.55998087
Y       10.63161502       2.21269937      20.08672830  T       0.12152683       0.14337732      -0.55934221       0.04017163       0.01012812      -0.03592362      -7.10384369
Y        6.38719545       5.81164911      18.16872742  T       0.32491635      -0.19298640       2.34286285      -0.01850794      -0.00035884      -0.02223461      -7.45314980
Y       10.62947680       0.26661778      16.67516230  T       1.03508567      -1.05425548      -1.50809442      -0.00871763      -0.03785567      -0.03073380      -7.56272459
Y        9.46752578       7.82387995      19.49155427  T      -0.81723777       0.02566604       1.17587267       0.01648965      -0.00537889      -0.06013587      -7.12611485
Y        7.72423834       2.30693935      17.77560363  T       0.13234201       1.08914304       0.97455162       0.01916489      -0.00787424       0.00482325      -7.53620720
Y        7.81098508       4.36572671      21.07868652  T       1.11013164      -0.76746459      -1.37718783       0.01699886      -0.05103146       0.02890175      -6.50847006
H        2.35796202       7.20192427      17.60019193  T      -1.57094978       0.42772466      -0.46615004       0.00920461       0.02240175      -0.08488784      -4.03622246
