49
Lattice="11.863972663879395 0.0 -0.190369114279747 -2.7065036296844482 9.11697769165039 -0.3595939874649048 0.0 0.0 33.15761184692383" Properties=species:S:1:pos:R:3:move_mask:L:1:momenta:R:3:forces:R:3:energies:R:1 adsorbate_info="_JSON {\"site\": {\"coordinates\": [0.34087079806030135, 3.292241815, 21.033024067139877], \"connectivity\": 2, \"topology\": [35, 42], \"n_vector\": [-0.3242493223141953, -0.34728508089790633, 0.8799178652377275], \"h_vector\": [-0.7991563457736405, -0.5166126088764766, -0.30734434655539405], \"site_formula\": {\"Y\": 2}}, \"smiles\": \"S1S\", \"mdf\": 2.026538071553672, \"adsorbate_formula\": \"H\"}" bond_change_count=0 energy=-249.90863037109375 stress="0.00033234601141884923 2.4530407245038077e-05 7.296429771486146e-07 2.4530407245038077e-05 0.0002930039481725544 4.5819779188605025e-06 7.296429771486146e-07 4.5819779188605025e-06 8.334739686688408e-05" free_energy=-249.90863037109375 pbc="T T F"
Ga       3.26460525       2.81025980      15.24209945  T       0.71197033      -0.27886153       0.21050597      -0.00848889      -0.01073707      -0.02077503      -3.28927016
Ga      -1.10344553       6.34772587      13.41262531  F       0.00000000       0.00000000       0.00000000       0.15141630      -0.01727103      -0.33238944      -3.10764623
Ga       3.18696737       0.77623945      11.74798393  F       0.00000000       0.00000000       0.00000000       0.26330942       0.15207717       0.27253962      -2.58110189
Ga       4.78001213       1.24975562      13.82387161  F       0.00000000       0.00000000       0.00000000       0.15279514      -0.05165124      -0.46059936      -3.26739526
Ga       0.43193507       4.79524708      11.89482021  F       0.00000000       0.00000000       0.00000000      -0.10993560      -0.30983144       0.11231780      -2.55065918
Ga       0.51392786       6.84337837      15.39420180  T      -0.39199629      -0.92989662       0.28839095       0.00919905      -0.01975016      -0.00407675      -3.30367136
Ga       1.78636200       1.32257807      20.65713878  T      -0.58410475      -0.52809791       1.19740703      -0.00824808      -0.00104758       0.00092855      -2.63864303
Ga       3.20682877       4.79590089      18.71459421  T      -0.35388301       0.06675527      -0.75906777       0.03005254       0.00147660      -0.04466235      -3.25066543
Ga      -1.01768873       8.34725776      16.94485877  T      -0.67218440      -0.04638414      -0.75092822      -0.01166495      -0.00857144       0.00550941      -3.31975794
Ga       0.55175610       8.73151945      19.04521342  T      -0.18791610      -0.24155048       0.03044909       0.00570840      -0.02329530      -0.03013593      -3.09519243
Ga       4.82202498       3.26960756      17.31082949  T      -0.49379909       1.65722898       0.16153619      -0.00678337      -0.00048261       0.03473387      -3.31059480
Ga      -1.16818391       5.29675413      20.75096191  T      -1.27428475       0.74647364      -1.79325553       0.03661522      -0.02746134       0.07473586      -2.66157794
Ga       9.19834035       2.80449217      15.16235709  T       0.03961962      -1.54871297      -1.37753870      -0.00818831      -0.01082443      -0.00751760      -3.29243469
Ga       4.82854080       6.34772587      13.31744099  F       0.00000000       0.00000000       0.00000000       0.15053673      -0.01198534      -0.30373383      -3.10636282
Ga       9.11895370       0.77623945      11.65279961  F       0.00000000       0.00000000       0.00000000       0.26283446       0.15074688       0.27556098      -2.58150935
Ga      10.71199894       1.24975562      13.72868633  F       0.00000000       0.00000000       0.00000000       0.14084847      -0.05243959      -0.46256235      -3.26875091
Ga       6.36392164       4.79524708      11.79963493  F       0.00000000       0.00000000       0.00000000      -0.10657068      -0.31131783       0.11104366      -2.55072999
Ga       6.43845801       6.84486981      15.31231054  T      -0.05378087      -0.73146759       0.23689451       0.00402168      -0.01814539      -0.00161644      -3.30882096
Ga       7.70194802       1.40524819      20.62408481  T       1.14531738       1.41891836      -1.27133805      -0.00538168       0.00277922      -0.02037537      -2.60423183
Ga       9.15265131       4.81858776      18.59588410  T      -0.79153757      -0.06594584       1.64236839      -0.03367897      -0.02341171      -0.07684889      -3.24243855
Ga       4.92174612       8.35787904      16.87835741  T      -0.30456708      -0.09128146      -0.55092773      -0.02331593       0.00530513       0.00230902      -3.31519508
Ga       6.48624661       8.80922736      18.96548622  T      -1.28942507       0.45920541       1.18712384      -0.01647344       0.00436129      -0.01194597      -3.10165548
Ga      10.75465967       3.26169821      17.25564557  T      -0.21810948       0.80802034       0.30721920      -0.00778536      -0.00713897      -0.00361432      -3.31421471
Ga       4.73355037       5.15826866      20.72492962  T      -1.18620568      -0.04349477       0.89366397       0.01888261      -0.00354380       0.02622843      -2.65591979
Y        0.36541245       3.78073957      14.73696801  T      -0.03726632       1.23284648      -2.92920577      -0.00259254       0.00511252       0.01891255      -7.57090187
Y        1.90320456       7.35664511      12.79558849  F       0.00000000       0.00000000       0.00000000      -0.11924720       0.13424395      -0.13620012      -7.14785004
Y        0.26163101       1.78515875      11.22613144  F       0.00000000       0.00000000       0.00000000      -0.14556606       0.05059034       0.84266722      -6.35753632
Y        1.77336216       0.24083631      14.44090843  F       0.00000000       0.00000000       0.00000000      -0.14526173       0.09341225      -0.19689263      -7.52028656
Y        3.35727143       3.78632760      12.41667271  F       0.00000000       0.00000000       0.00000000       0.03891564       0.07186113      -0.08084852      -7.15261698
Y        3.39911982       5.83594165      15.89765033  T       0.30569692      -0.56133175       0.06812114      -0.00768086      -0.00490771      -0.00090658      -7.55075312
Y        4.72928777       2.17391072      20.11048526  T       0.40617949       0.80472162      -0.96836708      -0.00047793       0.01369466       0.01069835      -7.12535667
Y        0.41786374       5.81437446      18.20655542  T       0.00260337      -0.47172447      -1.39916330       0.00185360       0.02018872      -0.00874984      -7.48023462
Y        4.71823652       0.22142074      16.72982593  T       0.23017381       0.12088945       0.14542171      -0.01306937       0.00535415      -0.00036820      -7.56080914
Y        3.57815409       7.81481250      19.51676182  T      -0.04841543      -1.39265290      -0.37741027      -0.04324416      -0.01863656      -0.01064137      -7.13556194
Y        1.77804216       2.26987924      17.84103393  T      -0.34493276      -0.88603863      -0.14064165      -0.01383098      -0.01862762      -0.03205962      -7.55088043
Y        1.72187051       4.21826491      21.17329124  T       0.48892867       1.84724882      -1.49926646      -0.02927738      -0.01417965       0.00855713      -6.73607826
Y        6.30440301       3.78146780      14.64261750  T      -0.12072451      -0.25995528      -2.12153031      -0.01357907       0.00610668       0.00415368      -7.57102680
Y        7.83519077       7.35664511      12.70040417  F       0.00000000       0.00000000       0.00000000      -0.13302228       0.13462250      -0.12929219      -7.14518881
Y        6.19361734       1.78515875      11.13094711  F       0.00000000       0.00000000       0.00000000      -0.14403182       0.05009300       0.84299862      -6.35689449
Y        7.70534849       0.24083631      14.34572411  F       0.00000000       0.00000000       0.00000000      -0.14776154       0.08603877      -0.16847502      -7.51911831
Y        9.28925800       3.78632760      12.32148743  F       0.00000000       0.00000000       0.00000000       0.03766648       0.06649837      -0.06044872      -7.14998198
Y        9.30988006       5.82916731      15.77962109  T      -1.81790438       0.53287867       2.46623356       0.00643927      -0.00124172       0.02589219      -7.54489946
Y       10.71982064       2.25023001      20.15793871  T      -0.75026940      -0.73042528       0.47657610       0.00975660       0.00192921      -0.01969904      -7.29590559
Y        6.33013297       5.83401527      18.15421869  T      -0.32852138      -1.64761183       0.13280150       0.00554966      -0.01198709      -0.03119331      -7.45714283
Y       10.64241083       0.22989257      16.62820802  T      -1.19552391       0.20915128      -0.65398835      -0.02480723       0.01021997       0.01167873      -7.55666924
Y        9.46030272       7.79837878      19.36703712  T       2.13971886      -0.86691856      -0.30009092      -0.00756764      -0.01180761       0.00431424      -7.14524174
Y        7.72838878       2.28525889      17.79225989  T       0.71671580      -1.36259988       0.43159066      -0.00546473      -0.01681253      -0.02636026      -7.57046223
Y        7.75689011       4.37023697      21.04885129  T       1.80034970      -1.30669816      -1.42285446      -0.00487180      -0.02774172       0.03081249      -6.53058434
H       -0.00153635       3.20428858      21.91115362  T      -0.15040152       0.09453341      -0.01334244       0.02146844      -0.03186385      -0.03360335      -3.45831633
