57
Lattice="9.379960060119629 0.0 6.000000233523199e-16 1.4999999525016814e-15 9.379960060119629 6.000000233523199e-16 0.0 0.0 31.26653480529785" Properties=species:S:1:pos:R:3:move_mask:L:1:momenta:R:3:forces:R:3:energies:R:1 adsorbate_info="_JSON {\"site\": {\"coordinates\": [7.816633465059814, 6.25330687, 19.54158401], \"connectivity\": 2, \"topology\": [35, 53], \"n_vector\": [0.1603435376758942, -0.22150235683221647, 0.9618870286282857], \"h_vector\": [1.0, 0.0, 0.0], \"site_formula\": {\"Re\": 2}}, \"smiles\": \"S1S\", \"mdf\": 1.7184037253941322, \"adsorbate_formula\": \"H2N\"}" bond_change_count=0 energy=-559.0259399414062 stress="0.0006309191230684519 -1.9887344024027698e-05 3.8171285268617794e-05 -1.9887344024027698e-05 0.0004444396181497723 -2.856162836906151e-06 3.8171285268617794e-05 -2.856162836906151e-06 8.41897854115814e-05" free_energy=-559.0259399414062 pbc="T T F"
Ti       1.56332672       1.56332672      11.72495079  F       0.00000000       0.00000000       0.00000000      -0.02636942      -0.00516051       0.27247462      -8.32853413
Ti       1.55996693       1.64788140      14.74811959  T      -0.54232771       0.08654494      -1.18862937       0.02788409       0.04755468       0.00554234      -9.48962784
Ti       1.64224885       1.50896316      17.75066810  T      -0.99899722       0.57614376       0.58080093      -0.04776008      -0.01119232      -0.00497748      -9.36821747
Ti       1.56332672       4.68998003      11.72495079  F       0.00000000       0.00000000       0.00000000       0.00916246       0.00388897       0.37773848      -8.26203918
Ti       1.59550115       4.69282753      14.86921218  T       0.81206412      -0.68284121      -0.61649788      -0.01856226      -0.00852896       0.01075242      -9.53647709
Ti       1.58938312       4.49448660      18.45870556  T       0.24183813      -0.39063694       2.46012260       0.00540733       0.01990376      -0.01453556      -9.27689648
Ti       1.56332672       7.81663370      11.72495079  F       0.00000000       0.00000000       0.00000000      -0.02284107      -0.00176191       0.34963325      -8.29856014
Ti       1.56132775       7.68140855      14.79127990  T      -0.11298386       0.04225264       0.67148840       0.00196092      -0.00845358       0.01000518      -9.48194313
Ti       1.62392461       7.98618323      17.71430900  T      -0.07663532       0.40566183       1.37480743      -0.01603789       0.00513484       0.04425919      -9.48469257
Ti       4.68998003       1.56332672      11.72495079  F       0.00000000       0.00000000       0.00000000       0.01222290       0.02243871       0.29501602      -8.30867958
Ti       4.71273389       1.68789666      14.78758868  T      -0.20185556      -0.19579992      -0.61594561      -0.00858642       0.01226687      -0.02075563      -9.51825619
Ti       4.78814614       1.47759900      18.02624929  T       0.66621393       0.97194567       0.82581429      -0.05566017      -0.01978002       0.01069035      -9.03836155
Ti       4.68998003       4.68998003      11.72495079  F       0.00000000       0.00000000       0.00000000      -0.00077451      -0.01172142       0.26050711      -8.29692459
Ti       4.71919065       4.69748018      14.78522789  T       0.61819434      -0.74230981      -0.17804908      -0.00992274       0.01818178      -0.01749012      -9.47624493
Ti       4.55536072       4.24243254      18.89195291  T       0.87474653      -0.30576289       0.68163866      -0.02401318      -0.05055043      -0.00266594      -8.97129822
Ti       4.68998003       7.81663370      11.72495079  F       0.00000000       0.00000000       0.00000000       0.00770993       0.00482518       0.31484473      -8.29598904
Ti       4.72158818       7.67903936      14.79806450  T      -1.10264874      -0.39442816      -1.17774703       0.01978828      -0.02140180      -0.00120883      -9.44505978
Ti       4.75241793       8.02163422      17.68210517  T      -1.54602940      -0.36618288       2.46310005      -0.00230783       0.01987034       0.01806208      -9.42738152
Ti       7.81663370       1.56332672      11.72495079  F       0.00000000       0.00000000       0.00000000       0.02699121       0.00456406       0.30739224      -8.31321239
Ti       7.84899500       1.67180130      14.78077174  T       0.40415111      -0.04202272      -0.50634886      -0.04011374       0.02905797      -0.01435038      -9.52219391
Ti       7.78565965       1.49280386      17.95871759  T      -0.61251201       0.37217736       2.44318634       0.00891155      -0.01363167       0.00207750      -9.13242149
Ti       7.81663370       4.68998003      11.72495079  F       0.00000000       0.00000000       0.00000000       0.01332405      -0.00971513       0.35772642      -8.25771141
Ti       7.82343242       4.68996144      14.87618799  T      -0.86333285       1.25486766      -1.58287463       0.01850633       0.02922307      -0.02460267      -9.52534389
Ti       7.96233415       4.36777835      18.49447329  T      -0.29561150      -0.59784457       1.03034033      -0.02881768      -0.00206852       0.00641188      -8.99919128
Ti       7.81663370       7.81663370      11.72495079  F       0.00000000       0.00000000       0.00000000       0.02076306       0.00536926       0.34086749      -8.29339409
Ti       7.81551294       7.65958119      14.80159574  T       0.02872142       0.87072846      -1.26545851      -0.00040637       0.05014508      -0.00542773      -9.44096565
Ti       7.81369368       7.88056436      17.68571542  T      -1.04263603      -0.82429142       1.62170898      -0.01297712       0.01805759      -0.01283878      -9.42618275
Re       0.00000000       0.00000000      13.28827763  F       0.00000000       0.00000000       0.00000000      -0.01304823      -0.22724630      -0.10657609     -11.43905544
Re      -0.02393178       0.02249644      16.18934598  T       0.34811769       0.90761488      -2.13713241      -0.03539773       0.02505147      -0.03360581     -11.65211773
Re      -0.43150035      -0.06980796      19.75785463  T       0.97349727       1.68624846      -3.74103682      -0.03396147      -0.02412704      -0.03376205     -10.52633286
Re       0.00000000       3.12665343      13.28827763  F       0.00000000       0.00000000       0.00000000       0.04194548       0.39151388      -0.38093457     -11.33985519
Re       0.00397006       3.20256539      16.51260726  T       0.72708109       2.63298204      -2.33946015      -0.01624893      -0.00294413      -0.00476923     -11.74638653
Re       0.47329131       2.22686322      19.83082351  T       2.09973091      -0.68073476      -1.99635168      -0.07689197       0.01394480      -0.01176143      -9.21906090
Re       0.00000000       6.25330687      13.28827763  F       0.00000000       0.00000000       0.00000000       0.04477253      -0.20970625      -0.27513602     -11.33139896
Re       0.03662538       5.97712023      16.72877804  T       1.15402910      -2.98878586      -0.66793922      -0.00337576      -0.01968379      -0.00400546     -11.88011265
Re      -0.00544474       6.43053174      19.27003911  T       0.31665317       2.39121610      -0.09215388       0.02256650       0.02684504       0.05060476     -10.50577927
Re       3.12665343       0.00000000      13.28827763  F       0.00000000       0.00000000       0.00000000       0.03371413      -0.20473854      -0.05822219     -11.46452618
Re       3.19265301       0.05007038      16.08978266  T       1.59866581      -0.15879454      -2.15341657      -0.01303307      -0.01558432       0.01956717     -11.56372929
Re       1.86172818      -0.91360388      20.26724337  T       1.41927044       2.69971890       1.76293230       0.04571244      -0.00611490      -0.03999221      -9.41248512
Re       3.12665343       3.12665343      13.28827763  F       0.00000000       0.00000000       0.00000000      -0.03359693       0.27917269      -0.45659775     -11.32797241
Re       3.26488627       3.23402306      16.54767280  T      -1.27564469      -1.71919775      -1.20845021      -0.02487990       0.01760055      -0.02087019     -11.74870110
Re       2.87381148       1.89609628      19.92041698  T       2.73740476      -2.51156966      -0.53384444       0.01794907      -0.07865673       0.02133146      -9.45941067
Re       3.12665343       6.25330687      13.28827763  F       0.00000000       0.00000000       0.00000000      -0.05711326      -0.11394434      -0.36010760     -11.31408024
Re       3.25819856       5.92765309      16.74650254  T       2.04707263       0.41394394       0.08060149      -0.04809614      -0.00303017      -0.02001861     -12.02019024
Re       3.18798128       6.50287774      19.15636185  T       1.41168394       0.91330948      -1.27978361      -0.00872218       0.03881264       0.04675257     -10.41226578
Re       6.25330687       0.00000000      13.28827763  F       0.00000000       0.00000000       0.00000000       0.06739398      -0.15995306      -0.04242602     -11.45950222
Re       6.29574667       0.09937820      16.12382230  T       0.45091062       2.01844041      -1.18857824      -0.01244078       0.01377329       0.04512676     -11.54845524
Re       6.61613702      -0.89174078      20.06015992  T      -0.88939939      -2.31418672       0.47345265      -0.03008099       0.05035369      -0.00599104      -9.36374187
Re       6.25330687       3.12665343      13.28827763  F       0.00000000       0.00000000       0.00000000       0.17643532       0.25893468      -0.59353775     -11.31322575
Re       6.24621017       3.19229680      16.62949200  T       1.57036599       0.80318872      -0.15661932       0.00351423      -0.02776662      -0.01184003     -11.70005035
Re       4.20740235      -0.23948326      20.00168012  T       1.47589947      -1.43552591      -2.26579517       0.02257520      -0.04981148      -0.03016481     -10.38025284
Re       6.25330687       6.25330687      13.28827763  F       0.00000000       0.00000000       0.00000000       0.15163881      -0.16736925      -0.49817854     -11.29154491
Re       6.21570306       5.79676049      16.83248060  T       0.97003053       1.66043517       0.25961440       0.00298986       0.00172760      -0.03781071     -12.00088787
Re       6.17612124       6.15902089      19.30178875  T       1.13764421      -0.47351812       1.12677691       0.00838274       0.01870888       0.03115618     -10.32050037
N        7.85737926       5.53364853      20.39361207  T      -1.64060187       0.02833158       0.97823964      -0.05163872       0.01226431       0.02643842     -10.43119526
H        7.79504006       6.01988266      21.29991096  T       0.22583459       0.34427139      -0.58397233      -0.03451337      -0.00335196      -0.00973189      -3.78365779
H        7.98140997       4.52681923      20.63759633  T       0.23666760       0.05638777      -0.77456455      -0.00403267       0.03880948      -0.07008567      -3.85377693
