57
Lattice="9.379960060119629 0.0 6.000000233523199e-16 1.4999999525016814e-15 9.379960060119629 6.000000233523199e-16 0.0 0.0 31.26653480529785" Properties=species:S:1:pos:R:3:move_mask:L:1:momenta:R:3:forces:R:3:energies:R:1 adsorbate_info="_JSON {\"site\": {\"coordinates\": [1.9541583950000003, 1.9541583950000003, 19.15075254], \"connectivity\": 4, \"topology\": [2, 32, 38, 41], \"n_vector\": [-0.2139652358349997, -0.2139652358349997, 0.9531200111781023], \"h_vector\": [1.0, 0.0, 0.0], \"site_formula\": {\"Ti\": 1, \"Re\": 3}}, \"smiles\": \"S1S\", \"mdf\": 1.308188452345395, \"adsorbate_formula\": \"H2N\"}" bond_change_count=0 energy=-555.3538818359375 stress="0.0008523326250724494 -3.5348884352970344e-07 4.340400892033358e-07 -3.5348884352970344e-07 0.0008659575833007693 2.0221401427988894e-05 4.340400892033358e-07 2.0221401427988894e-05 9.54874194576405e-05" free_energy=-555.3538818359375 pbc="T T F"
Ti       1.56332672       1.56332672      11.72495079  F       0.00000000       0.00000000       0.00000000      -0.00086858       0.00587916       0.37084514      -8.30237675
Ti       1.56486649       1.57326398      14.81987825  T       1.03773395       0.30298917       0.84252425      -0.01567521      -0.00165954      -0.01677831      -9.52474594
Ti       1.56622314       1.56071994      17.98494805  T      -0.57610417       0.28518617       0.94806065       0.01636931       0.01884756       0.02464569      -9.47131443
Ti       1.56332672       4.68998003      11.72495079  F       0.00000000       0.00000000       0.00000000      -0.00175135      -0.00552154       0.37880245      -8.30542278
Ti       1.56232350       4.68991611      14.80830346  T      -0.24077241      -1.49549311      -0.88968243      -0.00414462      -0.00517684      -0.00982416      -9.52695560
Ti       1.56799593       4.67553322      18.21480886  T      -0.55025648       0.13549999       2.05369229       0.00357746       0.01045527      -0.00366867      -9.61030293
Ti       1.56332672       7.81663370      11.72495079  F       0.00000000       0.00000000       0.00000000      -0.00004554       0.00503304       0.36648434      -8.30923462
Ti       1.56327718       7.82428715      14.80121125  T      -0.41570197       0.34630476      -1.32164369       0.00040201       0.00513766      -0.00275004      -9.52184105
Ti       1.57357098       7.86519414      18.20811401  T       1.29191583       0.71469382       1.70663160      -0.02072281      -0.02074458      -0.01503694      -9.62337303
Ti       4.68998003       1.56332672      11.72495079  F       0.00000000       0.00000000       0.00000000      -0.00692348       0.00536217       0.35056239      -8.31783009
Ti       4.68255955       1.57455764      14.78435815  T       0.85608094      -0.74635486      -0.86122121      -0.01451043      -0.00809034       0.00444592      -9.52807713
Ti       4.72001597       1.58378291      18.10138558  T      -0.21109490       0.01799146       1.48758174      -0.01710790      -0.00142519       0.01786143      -9.64123821
Ti       4.68998003       4.68998003      11.72495079  F       0.00000000       0.00000000       0.00000000      -0.00982314      -0.00317155       0.34333074      -8.31879425
Ti       4.67769405       4.69394829      14.78267951  T       0.17968192       0.42154234       0.02124473      -0.02106158      -0.00617933       0.00301227      -9.52397728
Ti       4.73667649       4.75786270      18.08625999  T      -0.21450731      -0.69793031       2.25072730      -0.00231910      -0.00962844      -0.01180995      -9.62903881
Ti       4.68998003       7.81663370      11.72495079  F       0.00000000       0.00000000       0.00000000      -0.01189265       0.00508464       0.33819553      -8.31992340
Ti       4.67614863       7.82478008      14.77988281  T       0.15558103       0.78507386      -0.58542969      -0.01993825       0.01389646       0.00404890      -9.52165031
Ti       4.72432329       7.81819260      18.11537360  T       1.25626104       1.02801818       1.88494170      -0.00680104      -0.00423644      -0.00764871      -9.63189030
Ti       7.81663370       1.56332672      11.72495079  F       0.00000000       0.00000000       0.00000000       0.01131717       0.00418637       0.35657400      -8.31501484
Ti       7.83490345       1.57281612      14.78971540  T      -0.54286352       0.62330258      -0.06371107      -0.00035687       0.00564927      -0.00482377      -9.52878761
Ti       7.78655334       1.58356046      18.11630179  T      -0.96809562      -0.73562508       0.53246113       0.01080798      -0.01812382      -0.00181264      -9.64083099
Ti       7.81663370       4.68998003      11.72495079  F       0.00000000       0.00000000       0.00000000       0.01300028      -0.00107672       0.34971958      -8.31587982
Ti       7.83460535       4.69961124      14.78822166  T      -0.16505337       1.23848737      -1.63863839       0.01947278      -0.02781345      -0.00739575      -9.52497864
Ti       7.76724796       4.76288746      18.10146415  T      -0.98059950      -0.06808363       2.21701606       0.01160459      -0.01041000      -0.03656730      -9.62842941
Ti       7.81663370       7.81663370      11.72495079  F       0.00000000       0.00000000       0.00000000       0.01378856       0.00607218       0.34003499      -8.31889248
Ti       7.83688734       7.82763763      14.78218822  T      -0.59836767       0.45994115      -0.47423995       0.00690177      -0.00212657       0.00736075      -9.51953411
Ti       7.77578357       7.81826931      18.12549534  T      -0.53977623      -0.26845731       1.18819764       0.02403267      -0.00287795      -0.01060152      -9.63448334
Re       0.00000000       0.00000000      13.28827763  F       0.00000000       0.00000000       0.00000000       0.06037702       0.05394651      -0.36004174     -11.35370922
Re       0.00196121      -0.00058383      16.37341697  T       1.00507432      -0.86786861      -2.17232151      -0.00824366      -0.00317311       0.02493535     -11.90458107
Re       0.02281551       0.10690071      19.50077514  T       0.06872271      -1.34806615      -0.93331788      -0.04235026      -0.04238653      -0.05287158      -9.05605221
Re       0.00000000       3.12665343      13.28827763  F       0.00000000       0.00000000       0.00000000       0.05544540       0.01411581      -0.35243899     -11.35423088
Re      -0.00019419       3.15264719      16.39532351  T      -1.31008296      -0.04721307      -1.58706133      -0.00145352      -0.00186773       0.00306664     -11.90911198
Re      -0.02695238       3.10276676      19.48293397  T       1.39694082      -0.67249696       2.52860720      -0.02757354       0.03640011      -0.00652713      -9.11431313
Re       0.00000000       6.25330687      13.28827763  F       0.00000000       0.00000000       0.00000000       0.06576507      -0.00275255      -0.36841151     -11.35257149
Re       0.03268314       6.27383687      16.36358641  T      -3.63396928      -2.31866818       0.67660240      -0.01484689      -0.00404461      -0.01711673     -11.90593147
Re      -0.05638747       6.27722119      19.51691004  T       1.77648584      -0.29757450       0.45737002       0.00184680       0.01004248       0.00952804      -8.68384361
Re       3.12665343       0.00000000      13.28827763  F       0.00000000       0.00000000       0.00000000      -0.05415376       0.04979917      -0.35093698     -11.35624409
Re       3.12865433       0.00378574      16.36043523  T      -0.79442763      -1.46641318      -3.13194223       0.00422095      -0.01198424       0.03695431     -11.89918995
Re       3.11415540       0.11274604      19.50364428  T       0.14551856      -0.85235150      -3.47868537       0.02048892      -0.01118502      -0.02838159      -9.08175659
Re       3.12665343       3.12665343      13.28827763  F       0.00000000       0.00000000       0.00000000      -0.05991603       0.01219183      -0.35116428     -11.35469913
Re       3.12748968       3.14896302      16.38222970  T       1.25904436      -0.61651502       1.46849284      -0.00075605       0.00410527       0.00892634     -11.90239239
Re       3.16386557       3.10814538      19.49144225  T      -1.28395327      -1.96510796       2.95479978      -0.01856689      -0.02025466      -0.01097888      -9.13709641
Re       3.12665343       6.25330687      13.28827763  F       0.00000000       0.00000000       0.00000000      -0.06534623      -0.00327087      -0.36107820     -11.35484695
Re       3.09634322       6.26856398      16.35330838  T      -1.51629613      -2.12344360      -0.01142726       0.01365638       0.00964124      -0.01631816     -11.89995861
Re       3.19345308       6.26912471      19.52240918  T       3.14964192      -1.62184313       0.10096867       0.00189235       0.01536124       0.00462794      -8.69523907
Re       6.25330687       0.00000000      13.28827763  F       0.00000000       0.00000000       0.00000000       0.01336611       0.04839543      -0.32379511     -11.36477947
Re       6.25915566       0.00828999      16.29868534  T      -0.59755625       0.18533409      -2.16303025      -0.01110542      -0.00574989       0.01468815     -11.87678528
Re       6.24444444      -0.02677924      19.52950805  T       0.55703601       0.21577964      -1.21876984       0.01185356       0.00760371      -0.02127653      -8.74792576
Re       6.25330687       3.12665343      13.28827763  F       0.00000000       0.00000000       0.00000000       0.02214360       0.01337386      -0.31521466     -11.36462975
Re       6.26140063       3.14374560      16.30856481  T       0.87648483      -1.82186248      -0.82498845      -0.01104184       0.00196716      -0.00789459     -11.87748814
Re       6.25318027       3.22778707      19.51136165  T       1.39642791      -2.22630765       0.47718385      -0.00399512      -0.03910260      -0.00520587      -8.81599808
Re       6.25330687       6.25330687      13.28827763  F       0.00000000       0.00000000       0.00000000       0.01254648       0.00743560      -0.31196544     -11.36591911
Re       6.25413990       6.28307951      16.28423559  T      -2.83738135      -2.41412367      -0.77005834       0.00596742      -0.01929268      -0.01295818     -11.84997177
Re       6.24991999       6.29545496      19.55878902  T       0.65428615      -1.27097844       0.23836782      -0.00609754      -0.00593652       0.00592214      -8.98686981
N        1.56457905       1.66071089      20.12988081  T      -0.81175756       2.56904620      -2.12632768       0.01798307      -0.03913620      -0.00349855     -10.42486477
H        1.55374750       0.87162668      20.83012914  T      -0.46394588      -0.45276550      -0.70857240       0.01661094       0.01401785       0.01317072      -4.14503288
H        1.55576958       2.47916191      20.80337851  T      -0.52099868       0.43505573      -0.82133956       0.02395056      -0.04560164       0.02904958      -4.16313076
