75
Lattice="15.477487564086914 0.0 0.5151416063308716 3.713155508041382 10.794244766235352 0.5151416063308716 0.0 0.0 29.30695915222168" Properties=species:S:1:pos:R:3:move_mask:L:1:momenta:R:3:forces:R:3:energies:R:1 adsorbate_info="_JSON {\"site\": {\"coordinates\": [14.18225765, 7.0621748, 16.39244652], \"connectivity\": 1, \"topology\": [48], \"n_vector\": [0.4819048459331004, -0.031972982698731604, 0.8756400218374795], \"h_vector\": [1.0, 0.0, 0.0], \"site_formula\": {\"Ti\": 1}}, \"smiles\": \"Cl\", \"mdf\": 1.723487051663742, \"adsorbate_formula\": \"C2H6N2O\"}" bond_change_count=0 energy=-491.9774169921875 stress="0.007447795942425728 0.0010916177416220307 0.00028942484641447663 0.0010916177416220307 0.008738463744521141 -2.280230364704039e-05 0.00028942484641447663 -2.280230364704039e-05 0.0008413446485064924" free_energy=-491.9774169921875 pbc="T T T"
Bi       9.16816344       7.44629099      15.02878377  T       1.89276380      -1.84663636      -1.08753724      -0.00724404      -0.00246234      -0.03575450      -6.55293655
Bi       0.82545853       0.05622002      12.69866753  F       0.00000000       0.00000000       0.00000000      -0.02784142      -0.03853992      -1.04419935      -5.44804478
Bi       2.78424299       0.61796372      18.24444043  T       0.44111600       0.02737956       0.55238144      -0.00095017      -0.01402872       0.00784192      -4.85454464
Bi       6.02038620       4.07458081      16.87027409  T      -0.54326047      -1.95371154      -0.17060009      -0.01206262      -0.01322267       0.03450260      -5.55166626
Bi       2.23458620       3.27928118      14.83343406  T       0.59360821       0.42328113      -0.78860981      -0.04299966       0.06892777       0.03331706      -6.69074392
Bi       5.36463547       6.69018269      13.39567089  F       0.00000000       0.00000000       0.00000000      -0.03125168       0.18980366      -1.20962274      -5.85376549
Bi       8.45968246      10.06338406      11.78936005  F       0.00000000       0.00000000       0.00000000       0.04265720      -0.08521834      -0.19851537      -4.91359615
Bi      10.44727570      10.57389834      17.57080041  T      -0.88666867      -1.13125238       0.41294866      -0.00439786       0.00001056      -0.01099735      -5.28668880
Ti       8.80666211       5.21389126      16.83559124  T       0.81635337      -0.55567208      -0.11731524       0.03859493       0.00361554       0.00416479      -6.58375311
Ti       4.17135809       8.70642658      15.26344776  T       0.24317377      -1.39696873       1.51577234      -0.00266880      -0.01264828      -0.01800144      -7.44903708
Ti       3.56686091       1.26976061      13.20247269  F       0.00000000       0.00000000       0.00000000       0.31868321      -0.01001272       0.02351833      -7.04577541
Ti       6.66190815       4.64296198      11.59616184  F       0.00000000       0.00000000       0.00000000       0.41781694      -0.35057825       0.86619616      -6.19858074
Ti       7.61622220       4.85886813      14.11415279  T      -0.25473886      -1.14989532      -0.34294811      -0.00291673       0.03055602      -0.01966709      -7.18224621
Ti       3.04546547       8.33600903      12.38326454  F       0.00000000       0.00000000       0.00000000      -0.06322037       0.20276390       0.39776742      -6.42956734
Ti       4.95768020       8.72719778      17.70813217  T       0.14373304      -0.89237220       0.56198333      -0.02622321      -0.06379838       0.00688124      -6.88709450
Ti       4.57854454       1.41471272      15.77662906  T      -0.18492855      -0.72788228      -0.23993833      -0.01719425      -0.01783323       0.00561893      -7.35559654
Ti       6.35193011       7.05882383      16.21518165  T       0.93843991       0.78627360      -1.19611923       0.01270053       0.00064626       0.00847071      -7.00495577
Ti       9.50424432      10.40377348      14.60730571  T       0.01436681      -0.20809859       1.11175294       0.01344156      -0.01269606      -0.02127718      -7.50221157
Ti       1.12472832       3.04373622      12.22225189  F       0.00000000       0.00000000       0.00000000      -0.56054747       0.37412310       0.04318637      -6.33008957
Ti       3.16495194       3.53977902      17.45530543  T       1.49895603      -0.51789088       0.55246268      -0.00737776       0.00547503      -0.02229381      -7.08482170
Ti       2.62323332       5.47664213      12.89186573  F       0.00000000       0.00000000       0.00000000      -0.42746937      -0.14079869      -0.08424294      -6.25604105
Ti       3.68346838       6.01112247      18.50716270  T      -0.38552260       0.42316233       0.53850839       0.02580184       0.00299124       0.04545517      -7.33312511
Ti       7.70781173       9.43240426      16.83176319  T      -0.71362352       0.72391381       0.04972436       0.00050630      -0.00271134       0.01340451      -7.06672287
Ti       7.17629628       2.08940287      14.70098154  T      -1.03183443       0.68451692      -0.80127430       0.01050785      -0.02313149      -0.02099878      -7.32283783
Ti       3.71953251       5.87869966      15.86320390  T       0.76038933       0.47330133      -0.06282646      -0.00985709      -0.00367092      -0.03979468      -7.74741554
Ti       6.83754290       9.28171275      14.29576627  T       1.20725002       0.04426090      -0.32567615      -0.00064861       0.00533912      -0.01358801      -7.36855030
Ti       6.23967600       1.78359568      12.10476303  F       0.00000000       0.00000000       0.00000000       0.07254410       0.56648380       0.75035155      -6.81057358
Ti       8.33872354       2.33613780      17.27962484  T       0.34957378      -1.07393583      -0.37728234       0.00234884       0.00373979      -0.00093344      -6.74589634
Ti       5.06536579       3.70266676      13.87208557  F       0.00000000       0.00000000       0.00000000       0.16328299      -0.41543287      -0.14796162      -7.09106350
Ti       8.16041279       7.07586813      12.26577568  F       0.00000000       0.00000000       0.00000000       0.28376365      -0.54423064       0.51853424      -6.32107639
Ti      10.43372028       7.10177612      17.87407324  T      -0.75264005      -0.54244683       0.59323539       0.02317616       0.00595915       0.00968821      -6.48484802
Ti       1.85852249       0.33516959      15.49804877  T       0.00605017      -1.93088767      -0.83599971       0.00752959       0.02098480      -0.00178529      -7.51281404
Bi      16.94574903       7.44788253      15.09294878  T      -0.21149689       0.54316237      -1.46239014      -0.03219685      -0.00618687       0.04224381      -6.78206253
Bi       8.56420231       0.05622002      12.95623875  F       0.00000000       0.00000000       0.00000000      -0.09071438      -0.11837410      -0.95842397      -5.47642899
Bi      10.54988382       0.83634966      18.47808291  T       1.45626744       0.99930791       0.97412276      -0.01025418       0.00304541      -0.00837332      -4.85533142
Bi      13.72262936       3.93373523      16.83965063  T      -1.46718222      -3.09924239      -4.85411076       0.04095678      -0.05100170      -0.00918829      -5.89615488
Bi      10.06174304       3.29346248      15.12939247  T       1.05033950      -0.62920812      -1.65870924       0.06186002       0.01665276       0.00438732      -6.58082771
Bi      13.10337925       6.69018269      13.65324116  F       0.00000000       0.00000000       0.00000000      -0.05178641       0.14431337      -1.09359407      -5.91805077
Bi      16.19842720      10.06338406      12.04693127  F       0.00000000       0.00000000       0.00000000       0.07255050      -0.02542130      -0.26787248      -4.88500071
Bi      18.25629434      10.73685346      17.77882761  T       2.14110444      -1.62435281      -3.46325184      -0.01849189      -0.01347449       0.01072305      -5.38401985
Ti      16.48212727       5.28380137      17.10756000  T      -4.23571165       1.65705911       1.14642930       0.04847658      -0.03292502      -0.07857466      -7.42049170
Ti      11.87641523       8.61078627      15.58801777  T      -0.42317936      -0.20936578      -1.15085266       0.00885899       0.00180675      -0.00564426      -7.60194397
Ti      11.30560493       1.26976061      13.46004295  F       0.00000000       0.00000000       0.00000000       0.23204070      -0.16976133       0.01020133      -7.05218983
Ti      14.40065193       4.64296198      11.85373306  F       0.00000000       0.00000000       0.00000000       0.43200761      -0.31243941       0.66339803      -6.19896841
Ti      15.35358212       4.92608111      14.40126060  T      -0.51730668      -0.85546999      -0.47286288      -0.00477064       0.00340262      -0.00141287      -7.63477182
Ti      10.78420925       8.33600903      12.64083481  F       0.00000000       0.00000000       0.00000000      -0.26245195       0.04012505       0.88260812      -6.38031960
Ti      12.74887559       8.81159868      18.09427830  T      -1.34742459      -0.67205928      -0.55310277      -0.01297933      -0.00103588       0.00233933      -7.31882191
Ti      12.23186618       1.39936418      16.03360894  T       0.50895922      -1.39322371       0.21330885      -0.01627081       0.01424041       0.01909831      -7.51593304
Ti      14.30304331       7.00226540      16.43710343  T       0.07914067       0.20356243      -0.51585473       0.03733647       0.00346717       0.01567876      -8.26870537
Ti      17.20966360      10.40333479      14.91131281  T       0.46130087       0.49558111       1.08795301      -0.01934709      -0.03431278      -0.01375135      -7.59452915
Ti       8.86347198       3.04373622      12.47982311  F       0.00000000       0.00000000       0.00000000      -0.52295846       0.42142257      -0.11504632      -6.34410334
Ti      10.87234529       4.09762834      17.96838556  T       0.43754907       0.87213190       0.27778706      -0.01887362       0.01432845       0.00291302      -6.59395790
Ti      10.36197758       5.47664213      13.14943600  F       0.00000000       0.00000000       0.00000000      -0.47397166       0.13523926       0.01067227      -6.30551434
Ti      12.87672869       6.00474264      18.55172684  T       2.36245741      -2.22767317       0.46156069      -0.00820899       0.02300765       0.00159639      -7.66582680
Ti      15.41986157       9.34006606      17.18950103  T       0.41803554       0.33346520      -0.16367706       0.03184822       0.01674926      -0.00911146      -8.08667183
Ti      14.91177958       2.06285768      14.96421865  T      -1.24883476       0.55038904       0.33906945       0.00137889       0.03940673       0.03934388      -7.41603088
Ti      11.62914635       5.76349612      16.06472570  T       1.27103247      -0.02669577      -0.15885780      -0.03603713      -0.01081227      -0.00715017      -7.51909924
Ti      14.57848666       9.25968539      14.52615237  T       0.56585657      -0.04046412       0.35070388       0.00452207      -0.00031760       0.00287624      -7.64582491
Ti      13.97841930       1.78359568      12.36233425  F       0.00000000       0.00000000       0.00000000       0.19499901       0.32331443       0.48483533      -6.80121231
Ti      15.99483254       2.46351837      17.69445920  T      -0.80713791       0.89466835       0.86277884       0.01024148       0.01949431      -0.02251850      -7.23012495
Ti      12.84707175       3.57357773      13.93375158  T       1.08381192      -0.94769759      -2.07467473      -0.00435057       0.00658625       0.00533891      -7.02199650
Ti      15.89915657       7.07586813      12.52334595  F       0.00000000       0.00000000       0.00000000       0.16219833      -0.47658914       0.35154429      -6.35568476
Ti      17.71665772       7.86398486      17.72466505  T      -0.03185197      -0.64029625       0.71769495      -0.01101136       0.03974217       0.02847929      -8.32339668
Ti       9.52433239       0.27748031      15.73578275  T       0.34387641      -0.40004317      -0.16502385      -0.00100762       0.00493424       0.02339631      -7.49954700
O       15.76163668       7.26490508      17.86378375  T       2.16899069      -0.12138721       2.61705348       0.02486368       0.01450959      -0.03656811      -2.60683250
N       15.02185622       6.32885930      18.38690434  T      -0.08140290       4.13087596       1.52531986      -0.03553820       0.05098236       0.01623714      -7.60594177
N       15.77980066       5.56706617      19.11528128  T       1.04884636      -2.60423550      -0.68032588      -0.03731227       0.05788910       0.05198628      -9.14559174
C       16.83763115       6.45941975      19.54259159  T      -1.66372055       1.00440541      -1.37583867       0.03358368       0.04591262      -0.02563524      -9.74588203
C       15.20934911       4.50682806      19.89764147  T       1.07966805      -0.16355220      -0.04412334       0.01107991       0.01850051       0.03457564      -9.58816242
H       17.52322729       5.89044128      20.19442245  T       0.30615770       0.54451897      -0.09502430       0.01998752       0.04818121       0.01185210      -4.02340984
H       17.07546316       6.50870808      18.50045949  T      -0.66250598       0.04584173       0.02526816      -0.05037022       0.04467034       0.02269077      -2.63699293
H       16.39331687       7.27622691      20.05301235  T      -0.25486379      -0.12649267      -0.02289393      -0.02498665       0.00126868      -0.01786961      -3.70632362
H       15.58762942       4.59811743      20.92158670  T      -0.05658513       0.02823212       0.09235809       0.03597786       0.03647212       0.06204569      -3.46024036
H       15.50719166       3.48252735      19.46132047  T       0.22829448       0.05046726       0.06139083       0.04379089      -0.07583398      -0.03828123      -3.88572669
H       14.09790757       4.63484166      19.94166509  T       0.00095579      -0.04187323      -0.08167899       0.04684675       0.00841549       0.02868913      -3.73200583
