121
Lattice="11.32190990447998 -0.0 -6.999999919513338e-16 -3.700000002833815e-15 23.034778594970703 -5.66095495223999 -0.0 4.2000001634662394e-15 33.96573257446289" Properties=species:S:1:pos:R:3:move_mask:L:1:momenta:R:3:forces:R:3:energies:R:1 adsorbate_info="_JSON {\"site\": {\"coordinates\": [1.36668432, 7.22817707, 19.45034218], \"connectivity\": 1, \"topology\": [51], \"n_vector\": [0.017120652066659456, 0.16864679399110394, 0.9855278495046877], \"h_vector\": [1.0, 0.0, 0.0], \"site_formula\": {\"Se\": 1}}, \"smiles\": \"Cl\", \"mdf\": 1.7127647297895967, \"adsorbate_formula\": \"C2H6O\"}" bond_change_count=0 energy=-609.7138061523438 stress="0.00019925402011722326 -3.3228486699954374e-06 -1.2132772098993883e-05 -3.3228486699954374e-06 5.6033972214208916e-05 -3.432874109421391e-06 -1.2132772098993883e-05 -3.432874109421391e-06 8.40341963339597e-05" free_energy=-609.7138061523438 pbc="T T F"
Cu       0.01617486      20.08661264      15.16393542  T       0.35372216       0.04430985       1.76934424       0.01759463       0.01795623      -0.00676607      -3.91881466
Cu      -0.12063902       8.73350118      15.21533700  T       0.40860536       0.69289385      -0.21812102       0.01913023       0.01763600      -0.01438309      -4.22531509
Cu       2.83809096      20.18224437      12.40275656  T       0.58702404       0.51485210       1.37379053       0.00356413      -0.00320770       0.01022477      -4.19436884
Cu       2.72059375       8.82200160      18.08555297  T       0.53892148       0.22956759      -0.25636099       0.01417411       0.03381960      -0.00770457      -4.19301939
Cu       2.46451413      13.42137212      17.65562503  T      -1.09295893      -2.13694941      -1.19818819      -0.00727581      -0.05323505       0.00195214      -3.42141533
Cu       2.91119699       3.22062445      18.39449012  T      -1.04001974       1.63813913      -0.68011349      -0.03579785      -0.04088596       0.00678182      -4.20932007
Cu       0.04522497      14.45923214      15.14827630  T      -1.44361834       0.43889113      -0.45775278      -0.00136942       0.00579866       0.00035667      -4.19901371
Cu      -0.51538478       2.78729213      20.65022707  T      -0.24712077      -1.68972907       0.05108116       0.07660431      -0.03984690      -0.01583853      -3.56474066
Cu       0.00000000      20.17817879       9.59222507  F       0.00000000       0.00000000       0.00000000      -0.00129097      -0.00141337       0.14861813      -4.23365545
Cu       0.00000000       8.66078949       9.59222507  F       0.00000000       0.00000000       0.00000000      -0.00807021      -0.00614489       0.65597659      -2.35178947
Cu       2.83047748      20.17817879       6.76174784  F       0.00000000       0.00000000       0.00000000      -0.00437870       0.00317824       0.62825185      -3.45671892
Cu       2.79325021       8.63091494      12.41812559  T       1.18213508      -0.48539976       0.36782094       0.02089706      -0.00263958      -0.00094717      -4.23351479
Cu       2.90780769      14.51810881      12.33337813  T       0.10242304      -0.30660282       0.03375188      -0.00227661       0.00597662      -0.02473243      -4.20821810
Cu       2.36580017       3.47543039      12.91244379  T      -3.14688710       0.35935313       0.89469984       0.01075172      -0.01243444       0.03397876      -3.74580526
Cu       0.00000000      14.41948509       9.59222507  F       0.00000000       0.00000000       0.00000000       0.01532035       0.28612196       0.14013359      -3.67927551
Cu      -0.06742992       3.05339127      15.52572780  T       0.74434654       0.32737133       0.36052332       0.00559217      -0.00057550       0.00337105      -4.22124815
Cu       5.66127680      20.17519532      15.16088522  T      -0.27875893      -0.80195333       1.74080062      -0.00440193      -0.01007964       0.00560550      -3.90838814
Cu       5.54720557       8.71993146      15.21855151  T       0.97712302      -0.25156127       0.67106951      -0.00640659      -0.00335557       0.00441370      -4.21213198
Cu       8.49966991      20.18239451      12.41181406  T       0.41490204      -0.11385739      -0.17684226       0.00170885       0.00292746       0.00321235      -4.18121958
Cu       8.37950273       8.90815750      18.06490361  T       0.09254987       0.83882174      -0.39516155       0.01890436      -0.00549146      -0.01209063      -4.19947577
Cu       8.19151250      13.45325848      17.66247083  T      -0.76324098      -2.52902574       0.95695769      -0.03975311      -0.03516178       0.01910248      -3.42280197
Cu       8.52441004       3.00652439      18.37101800  T       0.36469790      -0.11543722      -0.71956683       0.00356994      -0.00448462       0.00035131      -4.15836811
Cu       5.70633136      14.46282501      15.15170998  T      -0.49349221      -0.14984608      -0.45688702      -0.00674623      -0.01060120       0.00868083      -4.19044781
Cu       5.71715373       3.04203149      20.80422136  T      -0.55412649      -0.48731890      -0.40704815      -0.01523727       0.00030972       0.02109329      -3.89028907
Cu       5.66095495      20.17817879       9.59222507  F       0.00000000       0.00000000       0.00000000       0.00139142      -0.00454307       0.14709029      -4.23459864
Cu       5.66095495       8.66078949       9.59222507  F       0.00000000       0.00000000       0.00000000      -0.01101109      -0.00686437       0.65735227      -2.35145688
Cu       8.49143314      20.17817879       6.76174784  F       0.00000000       0.00000000       0.00000000      -0.00431746       0.00212420       0.62729037      -3.45652318
Cu       8.46143590       8.63202706      12.41461173  T      -0.50597756       0.57744165       0.33805988      -0.01766743      -0.00176999       0.00137568      -4.23544121
Cu       8.56445230      14.51267572      12.33127966  T       0.21167991      -0.01093340      -1.68539139       0.00747176       0.01689587      -0.02050692      -4.20612907
Cu       8.03433900       3.45159178      12.89750647  T      -2.93900981       2.06325555       0.95359586      -0.00067593      -0.00956140       0.02612230      -3.73844385
Cu       5.66095495      14.41948509       9.59222507  F       0.00000000       0.00000000       0.00000000       0.01528336       0.28597775       0.14121588      -3.67956400
Cu       5.58334623       3.04451232      15.53925413  T       1.03644902      -1.23809909      -0.55100480       0.02706784       0.00227758       0.00382842      -4.20966053
W        0.00971081      20.16928755      12.37647522  T       0.96432632      -0.22972579       1.20315130      -0.00116008      -0.00729097       0.05323933     -11.70828342
W       -0.10249584       9.04762714      18.05533018  T      -0.46643841       2.74255482      -2.46215957      -0.00708302       0.02740966       0.00241871     -11.60598564
W        2.85667411      14.36166729      15.15918518  T      -1.69627906       0.07989363      -0.64108922      -0.01441282       0.00108176      -0.01078923     -11.73018074
W        3.15842534       3.62875813      21.23004297  T       0.14466134      -3.46559778      -1.94135023      -0.03019125       0.00976038      -0.01971556     -10.88087749
W        0.00000000      20.17817879       6.76174784  F       0.00000000       0.00000000       0.00000000       0.03570876      -0.03943861       2.32197952      -7.39641857
W       -0.02709430       8.67165603      12.41760655  T       0.44045010      -0.12444607       0.41087713      -0.02838045      -0.01065752       0.00686961     -11.73707390
W        2.83047748      14.41948509       9.59222507  F       0.00000000       0.00000000       0.00000000       0.20092285       1.33986282       0.45231640      -9.73188496
W        2.75092149       3.08460420      15.57228955  T       0.53083154      -2.02050233       0.25729320      -0.00030336       0.01226937      -0.00825518     -11.74968910
W        5.65970905      20.18146231      12.37720510  T      -0.88895969       1.91883327      -2.28211124      -0.02228090      -0.00180955       0.00968765     -11.70642853
W        5.54986557       9.04579066      18.07649457  T       0.58276709       0.58680231       1.45656087      -0.02559501       0.01476040      -0.00486997     -11.62256241
W        8.52616709      14.35834032      15.15415180  T       0.97513434      -1.29077519      -1.21047866      -0.00738480       0.00521046      -0.00579454     -11.74129295
W        8.36531170       2.96604996      20.99937806  T      -1.01867349      -0.35983718      -1.13863808      -0.02814784       0.03033993       0.01515466     -10.30284309
W        5.66095495      20.17817879       6.76174784  F       0.00000000       0.00000000       0.00000000       0.03703449      -0.03921084       2.32270217      -7.39561272
W        5.63385813       8.67289877      12.41735098  T       2.19505756      -0.99830163       2.40273594      -0.03894991      -0.03384820       0.00343341     -11.73816967
W        8.49143314      14.41948509       9.59222507  F       0.00000000       0.00000000       0.00000000       0.19812696       1.33512795       0.44259745      -9.73345757
W        8.42713958       3.05076460      15.53710353  T      -1.19493286      -0.57003865       2.12365119       0.00149544      -0.00067978      -0.00420217     -11.76678658
Se       3.77105329      19.46079064      16.59769175  T      -0.04209255       2.09417617      -1.81190024       0.05317613      -0.05826552      -0.01632931      -3.21918821
Se       4.27675048       7.43790538      16.85825189  T       1.86320628       0.48257302       0.76539609       0.04209232       0.01459997       0.00269660      -4.35117245
Se       1.33259279      18.68599395      13.68275870  T      -0.51274491      -0.14005924      -1.51060761      -0.00292588       0.01227553      -0.01001456      -4.37109995
Se       1.13311176       7.58939902      19.42579674  T       0.38853817      -1.57292810      -9.98917553      -0.03038374       0.02366782       0.00311883      -3.97636318
Se       1.55099581      15.48436108      16.81872765  T       1.03096930       0.89032032      -0.97465354       0.00423562      -0.02170154      -0.02822096      -4.38191032
Se       1.39293538       4.49542386      16.91856629  T       1.87124696      -0.50734162      -0.88565243       0.00207435      -0.01924275      -0.02334322      -4.32012320
Se       4.15295881      15.96346728      13.98103388  T      -0.88295348       1.30050663       1.38636238       0.00520989      -0.01521431       0.03023804      -4.33395338
Se       4.48172104       4.70104142      19.59078705  T      -0.16870052       0.21038808      -0.28396721      -0.00389307       0.00449374      -0.03579547      -4.34880829
Se       1.90329982      11.68956267      19.13705606  T       2.23490115      -0.09951391      -1.61294474       0.02938437       0.00580055      -0.01145372      -3.31201315
Se       1.72022926       2.06907668      20.18076862  T       0.70791184       0.76295413       1.33020410      -0.01617828       0.01292351      -0.00709806      -4.40530777
Se       4.27729770      12.79829421      16.27460624  T      -0.82857683      -0.06385149      -0.70552451      -0.01243541       0.01579664      -0.01568909      -4.42843533
Se       4.43811400       2.27831997      22.63974636  T      -1.02155886       0.40050098      -1.99478505       0.01314815      -0.01597715      -0.00186747      -4.02970934
Se       4.10829683      10.46861103      19.38537301  T       2.40483721      -0.99166302      -0.87942054       0.02265933      -0.00407583      -0.00305371      -3.91521382
Se       4.35400465      21.64073606      13.72729157  T       1.74693595       0.26728748      -1.16088240      -0.00323828      -0.00703315      -0.00424648      -4.37222958
Se       1.30284709      10.21490507      16.52617648  T      -1.30105727      -0.58851320      -0.26435279      -0.01111981      -0.01903822      -0.00455171      -4.32470322
Se       1.90809378      20.73515242      16.63545081  T       1.98973086      -0.79711656       0.75423209      -0.05887283       0.04982918      -0.01803686      -3.20362353
Se       4.29427099      18.74556732      11.05601883  F       0.00000000       0.00000000       0.00000000       0.02374691       0.02950650       0.12058476      -4.33981562
Se       4.29427099       7.22817707      11.05601883  F       0.00000000       0.00000000       0.00000000       0.31181362       0.21088910      -0.31565252      -4.53980827
Se       1.36668432      18.74556732       8.12843227  F       0.00000000       0.00000000       0.00000000      -0.31544453       0.48826364      -1.68118119      -4.50853062
Se       1.28264731       7.26837804      13.79991413  T      -0.89252065       1.05261076      -1.18267577      -0.01086305       0.00732459      -0.01863061      -4.34314632
Se       1.46379328      15.85209751      10.95890999  F       0.00000000       0.00000000       0.00000000       0.62256116      -0.55129635      -0.95258391      -4.43319845
Se       1.46379328       4.33470774      10.95890999  F       0.00000000       0.00000000       0.00000000       0.03052885       0.05342525       0.02572128      -1.92238522
Se       4.19716167      15.85209751       8.22554111  F       0.00000000       0.00000000       0.00000000      -0.68161362      -1.12438703       0.93674982      -4.04079962
Se       4.08251383       4.50450708      14.20286373  T      -0.30519372      -1.16890464       0.38303379       0.02315967       0.02205558       0.02282799      -4.42899084
Se       1.48248836      13.06455320      13.71074886  T      -1.36766611       0.64345327       0.26538969       0.02428899       0.01503482       0.01906303      -4.31523943
Se       1.43991118       1.67270300      14.16275183  T       0.02999596      -0.08131790       0.32220202       0.00065912       0.00014983       0.03652345      -4.39255524
Se       4.19716167      12.98687172      10.95890999  F       0.00000000       0.00000000       0.00000000      -0.08313202       0.11528751      -0.56716806      -4.41416168
Se       4.09718063       1.63390325      16.89023123  T      -0.37091843       0.64109924      -0.63616217      -0.01207945       0.02448510      -0.00672716      -4.32139158
Se       4.26295523      10.12862742      13.69205751  T       1.53880900      -0.41695706      -2.07042804      -0.01168227       0.00052991      -0.00737353      -4.33813190
Se       4.29427099      21.61079216       8.12843227  F       0.00000000       0.00000000       0.00000000       0.25720939      -0.41816631      -1.61370265      -4.49310970
Se       1.36668432      10.09340286      11.05601883  F       0.00000000       0.00000000       0.00000000      -0.35903022      -0.31825620      -0.32466584      -4.51218843
Se       1.36668432      21.61079216      11.05601883  F       0.00000000       0.00000000       0.00000000       0.01301720       0.04381976       0.10415890      -4.33240366
Se       9.38766988      19.29426708      16.45152278  T       2.42192296       1.63188269      -0.22796769      -0.00963414      -0.02357955       0.01239023      -3.23863554
Se       9.89740211       7.48669132      16.82730046  T      -0.48873448       0.19139874       1.02904485      -0.00581290       0.01929853       0.04198918      -4.34551144
Se       6.97301704      18.72138399      13.71672649  T       0.07595465       0.83309648      -0.69104729       0.01259004      -0.01176559      -0.01393760      -4.37902069
Se       6.84463180       7.73203569      19.51727975  T      -1.99234319       0.72010940      -0.75320549      -0.00353874       0.02329455      -0.01878257      -4.03056049
Se       7.22990969      15.48848278      16.81270983  T       0.87909037      -1.09591935      -0.59088338      -0.01827689      -0.00963481      -0.00271855      -4.38643646
Se       7.09096381       4.45880287      16.90088259  T      -1.08716255      -0.27031829      -1.92359488       0.01496496      -0.02275457      -0.02466120      -4.31657457
Se       9.81826735      15.96451606      13.98237250  T      -0.76063019       0.02306689       1.73181635       0.00662746       0.00805430      -0.00097040      -4.33026218
Se       9.58161884       4.67321850      19.85522035  T      -1.26418860       0.48715009       0.67014242      -0.03941123      -0.01003477      -0.01085282      -4.30124855
Se       7.64969611      11.73672152      19.15547120  T       0.03649563       1.07477751      -1.89357010       0.01859939      -0.00102906       0.01150279      -3.29315424
Se       7.18407955       1.44378034      19.65872665  T       0.82133024       1.07077453       2.04887119       0.01590408      -0.00438554       0.00002752      -4.36545897
Se       9.95007430      12.78551304      16.25559848  T      -1.37558679      -0.87848740      -0.43852991       0.01780982      -0.02082529      -0.02065161      -4.43849850
Se       9.70664063       1.65401362      22.41510058  T      -0.83005181       2.14775105      -2.21766066      -0.03020558      -0.00406277      -0.02304158      -4.02516460
Se       9.82414962      10.49555009      19.39558995  T       2.06360408      -1.38369441      -0.47295805       0.02938920      -0.03200188      -0.01261355      -3.91599488
Se      10.03669165      21.60064919      13.76390300  T       0.85061267      -0.31250590      -0.15895193      -0.00482810      -0.00113542      -0.03057043      -4.36746311
Se       6.90342187      10.25570318      16.53194544  T       0.37216879      -1.01642016       0.92991275       0.01487336      -0.00320694       0.01018880      -4.32521772
Se       7.62527682      20.71959428      16.57407737  T      -1.72617654      -0.13749060      -2.34592511      -0.00442328       0.00491496       0.00462303      -3.20023918
Se       9.95522594      18.74556732      11.05601883  F       0.00000000       0.00000000       0.00000000      -0.02165882       0.01647866       0.09670430      -4.34144402
Se       9.95522594       7.22817707      11.05601883  F       0.00000000       0.00000000       0.00000000       0.31415305       0.18924128      -0.32998753      -4.54161644
Se       7.02763939      18.74556732       8.12843227  F       0.00000000       0.00000000       0.00000000      -0.31577981       0.48912635      -1.67943299      -4.50862503
Se       6.94629445       7.26650727      13.79228491  T       1.09697826       0.64457930      -0.63364521       0.00445710      -0.00073851       0.00174217      -4.34753275
Se       7.12474823      15.85209751      10.95890999  F       0.00000000       0.00000000       0.00000000       0.61770266      -0.54480380      -0.94670522      -4.43381786
Se       7.12474823       4.33470774      10.95890999  F       0.00000000       0.00000000       0.00000000       0.02716409       0.05722238       0.00884002      -1.92346847
Se       9.85811710      15.85209751       8.22554111  F       0.00000000       0.00000000       0.00000000      -0.67984259      -1.12317181       0.93817878      -4.04032803
Se       9.74744243       4.49477846      14.18184099  T      -0.91278566      -0.47713500       1.33174576       0.00853104      -0.00219361       0.01440939      -4.42739058
Se       7.14426630      13.06467404      13.71376767  T      -0.95693645       1.10674340       0.52857780      -0.01914434      -0.00218260       0.00207067      -4.31991863
Se       7.07706084       1.65994321      14.14547628  T       2.74829331      -0.89611122      -0.69396567      -0.00850935       0.01890723       0.01495799      -4.39703846
Se       9.85811710      12.98687172      10.95890999  F       0.00000000       0.00000000       0.00000000      -0.08024929       0.11077985      -0.56801319      -4.41482735
Se       9.79168825       1.56731601      16.80627401  T      -0.54244344       1.13073104      -0.64250749      -0.00593585       0.01955210      -0.02386161      -4.34261513
Se       9.92324787      10.13716938      13.68135302  T       1.07715995      -1.24467156      -1.21839604       0.00313533       0.00234326      -0.00427149      -4.33407497
Se       9.95522594      21.61079216       8.12843227  F       0.00000000       0.00000000       0.00000000       0.26111740      -0.41580427      -1.61308312      -4.49397182
Se       7.02763939      10.09340286      11.05601883  F       0.00000000       0.00000000       0.00000000      -0.35872048      -0.30762118      -0.32929227      -4.51234531
Se       7.02763939      21.61079216      11.05601883  F       0.00000000       0.00000000       0.00000000       0.03506350       0.03624204       0.11374784      -4.33755589
O        1.36960782       7.56963873      22.82928529  T      -1.83534911       1.67172447       5.18788578      -0.07218656      -0.05259703       0.01897356      -6.14018536
C        1.10965215       6.15175413      22.97599646  T      -0.74717314       0.88953320       2.23955262       0.00807023      -0.05841279      -0.01390755      -9.44060135
C        2.32889392       5.33972643      22.51151257  T       0.05751243      -0.77331603       1.46187632       0.00637436      -0.07344115      -0.02537763      -9.58347797
H        1.18984319       7.79013104      21.88472459  T       0.02681828      -0.04479016       0.61460820       0.04451896       0.06880192      -0.02040103      -3.52450514
H        0.91922285       5.98343735      24.04664702  T       0.03510793      -0.33777553       0.58046361       0.00145378      -0.00487068      -0.00567222      -3.50018835
H        0.20036168       5.86569636      22.41394429  T      -0.06337629      -0.02339437       0.15697962      -0.01863717       0.01662447      -0.00739588      -3.56019545
H        3.24687835       5.72024598      22.95740527  T       0.05947595       0.02278220      -0.03938061       0.02856593      -0.00601137       0.01067019      -3.52494597
H        2.41436670       5.43615463      21.40222321  T      -0.37859794       0.06017665      -0.15821798       0.00884666       0.02374568       0.01936164      -3.80873251
H        2.17996544       4.27287586      22.83047222  T       0.46522110       0.10906379      -0.04889393      -0.03093866      -0.01745772       0.00134464      -3.80641699
