121
Lattice="11.32190990447998 -0.0 -6.999999919513338e-16 -3.700000002833815e-15 23.034778594970703 -5.66095495223999 -0.0 4.2000001634662394e-15 33.96573257446289" Properties=species:S:1:pos:R:3:move_mask:L:1:momenta:R:3:forces:R:3:energies:R:1 adsorbate_info="_JSON {\"site\": {\"coordinates\": [7.808090684999999, 15.135791300000001, 17.35176182], \"connectivity\": 2, \"topology\": [20, 84], \"n_vector\": [-0.3743395391761807, 0.5796683141379539, 0.723777973548399], \"h_vector\": [-0.555045215291036, 0.5818200400614008, -0.5944831788751281], \"site_formula\": {\"Cu\": 1, \"Se\": 1}}, \"smiles\": \"S1S\", \"mdf\": 0.8639338538381616, \"adsorbate_formula\": \"C2H6O\"}" bond_change_count=0 energy=-607.7431640625 stress="0.00024683625088073313 -6.1226919569890015e-06 -1.6365725969080813e-05 -6.1226919569890015e-06 4.7972906031645834e-05 -8.609407814219594e-06 -1.6365725969080813e-05 -8.609407814219594e-06 7.878674659878016e-05" free_energy=-607.7431640625 pbc="T T F"
Cu       0.06314261      20.12310187      15.20593981  T      -1.40033591       0.53704083       1.27057063      -0.02679878       0.00443004      -0.01863800      -3.88366699
Cu      -0.09041328       8.65966406      15.20169918  T      -0.50947269       0.08410473       0.48660593       0.00126686       0.00699597       0.00344989      -4.23200941
Cu       2.84446380      20.17338189      12.41552020  T       1.26654517      -0.50072448       0.50260307      -0.01795934       0.00164228      -0.01229261      -4.18567562
Cu       2.74585776       8.74696537      18.04971545  T       0.28303751       0.57599240       0.03252009      -0.02085747      -0.02024684      -0.00143497      -4.22700310
Cu       2.65117012      13.42923285      17.65242209  T      -2.33061576      -2.30716195      -0.13137800      -0.01829269       0.03833443      -0.05304979      -3.45634294
Cu       2.90406032       2.88821550      18.23431529  T       1.47749259      -0.31024248       0.88459823      -0.00108219       0.00315926       0.03146373      -4.18236256
Cu       0.01107838      14.43917211      15.21504525  T      -0.16076162       0.51972330       1.26348706       0.01000938      -0.00528903       0.00937057      -4.21084595
Cu      -0.09996291       2.76531625      20.73923458  T       0.29650334      -1.36633935      -0.88074560      -0.00513783       0.00895466       0.00831702      -3.76718092
Cu       0.00000000      20.17817879       9.59222507  F       0.00000000       0.00000000       0.00000000       0.00326353      -0.00174600       0.15111482      -4.23076248
Cu       0.00000000       8.66078949       9.59222507  F       0.00000000       0.00000000       0.00000000      -0.01245263      -0.00435914       0.65346676      -2.35164285
Cu       2.83047748      20.17817879       6.76174784  F       0.00000000       0.00000000       0.00000000      -0.00690797      -0.00138619       0.62643313      -3.45381427
Cu       2.80257852       8.63031984      12.40914167  T      -0.29277677      -0.97006274      -0.49883465       0.00913638       0.00390192       0.00353247      -4.23797464
Cu       2.85773871      14.47950754      12.32180726  T       0.17668160      -0.64056584       1.09612182      -0.00386797      -0.00251650       0.00302237      -4.22527885
Cu       2.46508717       3.38309375      12.80606571  T      -0.57598881       2.71052970      -0.81039511       0.01732916      -0.00734061       0.01287544      -3.70621705
Cu       0.00000000      14.41948509       9.59222507  F       0.00000000       0.00000000       0.00000000       0.00924930       0.28822434       0.14042641      -3.67729568
Cu       0.05320753       2.92738395      15.39585390  T       0.46840598       0.48795556       0.30802562      -0.01089585       0.00916174      -0.00079329      -4.21727753
Cu       5.73094560      20.09894346      15.16162971  T      -0.42569133       0.22275630       1.38224573       0.00152334      -0.01258071       0.01509300      -3.84661698
Cu       5.60568984       8.74474577      15.20504895  T       0.63173245      -0.71289321      -0.00973794      -0.01025131      -0.00463872      -0.00235793      -4.21516800
Cu       8.49625271      20.17616385      12.40599969  T      -0.13911397       0.85521288      -0.66138626       0.02405755      -0.00420897      -0.00401582      -4.18431187
Cu       8.38937300       8.86682382      18.00641373  T      -0.73941617       0.70235584      -1.17997387       0.00194880      -0.00456084       0.02955145      -4.27393389
Cu       8.27994592      14.33725893      17.92870012  T       1.02083109     -11.94218316      -4.69724866       0.00939989      -0.03859001      -0.01222032      -4.04892874
Cu       8.56800246       2.88507516      18.23547818  T      -0.41275540       0.16532127      -0.13490962      -0.00252021       0.00019454       0.02354878      -4.18266201
Cu       5.67772055      14.56805702      15.05196504  T      -0.56540574       0.64276698      -0.32985531       0.00045769      -0.02393484       0.01554449      -4.18654823
Cu       5.56161452       2.77602656      20.73847835  T      -0.73315459      -0.73779800       0.98518767       0.00671897       0.00541151       0.01068310      -3.76505804
Cu       5.66095495      20.17817879       9.59222507  F       0.00000000       0.00000000       0.00000000       0.00204380      -0.00150336       0.14744040      -4.23025703
Cu       5.66095495       8.66078949       9.59222507  F       0.00000000       0.00000000       0.00000000      -0.00932080      -0.00655114       0.64936900      -2.34871387
Cu       8.49143314      20.17817879       6.76174784  F       0.00000000       0.00000000       0.00000000      -0.00699299      -0.00143008       0.62644470      -3.45382929
Cu       8.47186010       8.64360711      12.41877937  T      -0.83726867      -1.06692696       0.74235424       0.00228443       0.00051336       0.00189437      -4.23957729
Cu       8.55749514      14.49662727      12.33448718  T       0.23553988       0.66841719       0.23494061       0.01551293       0.01441879      -0.02422237      -4.23657990
Cu       8.12610234       3.38047261      12.80565476  T      -1.84885245       1.85973701      -0.13558364       0.01692410      -0.00154007       0.01650211      -3.70630074
Cu       5.66095495      14.41948509       9.59222507  F       0.00000000       0.00000000       0.00000000       0.00972410       0.29256153       0.14263904      -3.67939734
Cu       5.71205361       2.92887647      15.39707269  T       1.02598187      -0.89669620       0.62265012      -0.00597223       0.00567140      -0.00019056      -4.21837330
W        0.01019663      20.16718775      12.37854179  T       0.04108048       0.58345578      -2.62840941      -0.00284878      -0.01374840       0.02032439     -11.70403481
W       -0.08105522       8.80775170      18.02926962  T      -3.11104436       0.51590055       0.79202096       0.00962864       0.01763618      -0.00365454     -11.68044853
W        2.84163867      14.35223179      15.12951116  T      -0.21778865       1.82854676       1.28401696       0.01829468      -0.00820896       0.01520625     -11.73110580
W        2.72156582       2.83016565      20.85830055  T      -1.85923591      -1.96585603       1.92195755       0.02088028      -0.00353612      -0.00847018      -9.94215965
W        0.00000000      20.17817879       6.76174784  F       0.00000000       0.00000000       0.00000000       0.03322038      -0.03633803       2.32915545      -7.39228058
W       -0.01902847       8.66599999      12.41679262  T       0.84039989       1.09303952       0.72853852      -0.03035985      -0.02823858       0.01003814     -11.73674870
W        2.83047748      14.41948509       9.59222507  F       0.00000000       0.00000000       0.00000000       0.17384581       1.28763402       0.38452458      -9.74031830
W        2.87914609       2.95243368      15.42225168  T       1.78843871      -0.91532348       0.75138131      -0.00661334      -0.00216070      -0.00377133     -11.78024197
W        5.67241898      20.16546934      12.37933922  T      -0.18263054       1.16031108       1.40576143      -0.02013407      -0.01988480      -0.01236258     -11.70241070
W        5.54520940       8.95064349      18.02022582  T      -0.87035157       2.04943511       2.90316185       0.03493194      -0.03556879      -0.04471366     -11.59816074
W        8.48463472      14.50912849      15.15582627  T       1.48042083      -1.40398546      -2.00857177       0.00597838      -0.00342914      -0.01297617     -11.63475895
W        8.38821293       2.81440181      20.85597903  T      -1.35394252      -1.51501448      -2.21805259      -0.00377128       0.01554105      -0.01283503      -9.94276619
W        5.66095495      20.17817879       6.76174784  F       0.00000000       0.00000000       0.00000000       0.03319349      -0.03640613       2.32938337      -7.39216375
W        5.64328455       8.66630848      12.41397736  T       0.17714361       1.93291636       2.84401692      -0.02496833      -0.01897774       0.01205885     -11.74884987
W        8.49143314      14.41948509       9.59222507  F       0.00000000       0.00000000       0.00000000       0.18382682       1.32148647       0.43620461      -9.72935963
W        8.54122919       2.95124894      15.42277538  T      -1.46173699      -1.62168935      -2.12236477      -0.01074106       0.00236296      -0.00319132     -11.77749348
Se       3.76563899      19.32363713      16.55449792  T      -0.28605098      -0.02046938      -0.06885729       0.01647262       0.02920276       0.04707092      -3.71296668
Se       4.28511064       7.38603570      16.75698209  T       0.54090654       1.27515900       0.60322681      -0.03260895      -0.06586552      -0.04414218      -4.34818745
Se       1.33486098      18.69083213      13.69021141  T      -1.44622495       0.62426083      -1.50732133      -0.00255856      -0.01859677      -0.01117709      -4.36774778
Se       1.23640560       7.39599599      19.37191541  T      -1.36884416       1.98939868      -1.24885896      -0.03008102       0.03635162      -0.01287481      -4.02641296
Se       1.58680162      15.43728008      16.85009574  T       2.05252434       1.24632324       0.02430606      -0.00959878       0.00395709      -0.02105022      -4.36727333
Se       1.52249725       4.35430709      16.77670998  T      -0.25088439      -0.92789718       0.14949573      -0.00613241       0.01624794       0.01161550      -4.31124067
Se       4.05355901      15.99628897      13.91139286  T      -0.88296730       0.46950630       1.64239670      -0.00215106      -0.02070117       0.02760426      -4.33583641
Se       4.06009667       4.44660350      19.73293588  T      -0.71831260      -0.82966615       1.27340520       0.00270152       0.01448607      -0.00133147      -4.33666515
Se       2.11130435      11.73291898      19.13634983  T       1.10492476       0.12670683      -1.14387605      -0.01369345      -0.04681385       0.02856930      -3.25851846
Se       1.48881693       1.37286944      19.50123358  T       1.43782984      -0.15382897       2.33648676      -0.00696415      -0.02178287      -0.00008877      -4.44199133
Se       4.35626913      12.81796727      16.16053319  T      -1.11991203      -1.24459977      -0.38939973      -0.02825857       0.01594525       0.01441638      -4.43931675
Se       4.12018418       1.46942978      22.15825406  T      -1.76426372       2.62397148      -1.16969639      -0.02172707      -0.00891787       0.00484584      -4.03686190
Se       4.16333741      10.36561347      19.38975294  T       0.05183490      -0.68861570      -1.64043802      -0.03601012       0.01292738       0.07510459      -3.92553520
Se       4.36651190      21.57347346      13.78308303  T       0.07168474       0.02220555      -1.40872033       0.01472187       0.01391172      -0.02278958      -4.38196325
Se       1.27789156      10.14711348      16.59287805  T      -2.50386415       0.69015134       1.48354923       0.00073304      -0.02996579       0.01935900      -4.31557417
Se       2.01572010      20.87958258      16.44471616  T      -0.95739853      -0.66646273      -0.62566664      -0.00394865       0.02140051       0.00228484      -3.05338168
Se       4.29427099      18.74556732      11.05601883  F       0.00000000       0.00000000       0.00000000       0.01584736       0.01979800       0.09001116      -4.34280205
Se       4.29427099       7.22817707      11.05601883  F       0.00000000       0.00000000       0.00000000       0.31588495       0.17216825      -0.35453919      -4.54232121
Se       1.36668432      18.74556732       8.12843227  F       0.00000000       0.00000000       0.00000000      -0.31632185       0.49205893      -1.68175852      -4.50927496
Se       1.30095931       7.22987819      13.75764679  T      -2.26532420      -0.47242334      -1.35133054      -0.00240095       0.00573033      -0.01010315      -4.35012484
Se       1.46379328      15.85209751      10.95890999  F       0.00000000       0.00000000       0.00000000       0.56204540      -0.51933962      -0.98199666      -4.43510437
Se       1.46379328       4.33470774      10.95890999  F       0.00000000       0.00000000       0.00000000       0.00881559       0.08425394      -0.02547333      -1.94167721
Se       4.19716167      15.85209751       8.22554111  F       0.00000000       0.00000000       0.00000000      -0.66662323      -1.11156547       0.94470537      -4.03715134
Se       4.20459038       4.40085170      14.07784705  T       1.88264796      -1.12165566       0.01393826       0.01361667       0.00952151      -0.00821422      -4.42925453
Se       1.42040317      13.04309916      13.74507690  T       1.86860062       0.16974083       2.28728076       0.02865876      -0.00032165       0.02225771      -4.30938292
Se       1.55457852       1.54906573      14.01820242  T       0.07978470       1.99026766       0.19004022      -0.01970285       0.00672109      -0.00303650      -4.39493322
Se       4.19716167      12.98687172      10.95890999  F       0.00000000       0.00000000       0.00000000      -0.08625982       0.08655813      -0.55637985      -4.40873241
Se       4.23681108       1.46745398      16.69056133  T       0.48673487      -1.02619688      -1.47904968       0.00556137       0.00915382       0.01105987      -4.33018017
Se       4.27670338      10.12562481      13.68564182  T       0.13611497      -0.20914837      -0.59181680      -0.00284795      -0.00013430       0.01277192      -4.32944727
Se       4.29427099      21.61079216       8.12843227  F       0.00000000       0.00000000       0.00000000       0.27663586      -0.43647322      -1.62562001      -4.50095367
Se       1.36668432      10.09340286      11.05601883  F       0.00000000       0.00000000       0.00000000      -0.34591007      -0.29776990      -0.32792634      -4.51375341
Se       1.36668432      21.61079216      11.05601883  F       0.00000000       0.00000000       0.00000000       0.00856309      -0.02728227       0.14506152      -4.33632803
Se       9.42960251      19.36507844      16.53637381  T      -0.67747041       0.26532768       0.23577502       0.00668840       0.02141694      -0.03214387      -3.20593786
Se       9.88100833       7.34097343      16.73153995  T       1.01656324      -0.25237016      -0.99814432       0.03614389       0.03343459       0.03240672      -4.31879234
Se       6.99225815      18.67044432      13.67447864  T      -0.66822825       1.75126640       0.20141520      -0.00484621      -0.00663864      -0.02236158      -4.38113832
Se       6.84863103       7.63681000      19.44376688  T      -0.47575957       2.79021313      -0.96367063       0.00693102      -0.03394742       0.03354041      -4.03478575
Se       7.11748726      15.96875889      16.44252827  T      -1.49742348      -1.27363326      -3.66840176      -0.00179208      -0.00907160       0.01443994      -4.27665567
Se       7.18172058       4.35299593      16.77597198  T       1.16698042       0.63898382      -1.25266771      -0.00042847       0.00893502       0.01307809      -4.31083250
Se       9.90333978      15.92488343      13.88655079  T      -0.12512142       0.68309112       1.15194188       0.01308935       0.01666590      -0.00411236      -4.32293940
Se       9.72456590       4.43916787      19.73857338  T      -2.01045367       0.44645536       1.04388497       0.00003507       0.00154734       0.00941221      -4.33325481
Se       7.17092285      12.55187626      19.09009525  T      -1.04091895      -2.81498132      -2.40954372       0.02038576       0.04556428       0.03898710      -2.85256243
Se       7.13706402       1.37758004      19.49233467  T      -1.16911064       2.47053027       1.53215540      -0.00474212      -0.01206829      -0.00124954      -4.43994379
Se       9.77193732      13.04966220      16.52731159  T       1.76285006       0.42119167      -0.90521327      -0.00666600       0.00227212       0.03267345      -4.35815954
Se       9.78452812       1.43329593      22.13658970  T      -1.45127754       2.55196124      -0.14467353      -0.01212293      -0.01430687       0.00538491      -4.03802681
Se       9.89720332      10.25279106      19.30652345  T       1.18177835      -0.13318332      -1.67198245       0.02433467      -0.00581807      -0.03691901      -4.03156900
Se      10.02828686      21.57702528      13.77411596  T       0.14761804      -0.98045023      -0.92403280      -0.00882009       0.02435867      -0.02284029      -4.37729025
Se       6.91227461      10.27685536      16.59735677  T      -1.37334457      -0.83809528       0.64534561       0.03664830       0.04315628      -0.02844528      -4.37045145
Se       7.63118642      20.75485446      16.56579473  T      -0.77710001      -1.09132191      -1.21163883       0.01874239      -0.00974364       0.01969071      -3.23508644
Se       9.95522594      18.74556732      11.05601883  F       0.00000000       0.00000000       0.00000000       0.02205143       0.01883380       0.08972771      -4.34390545
Se       9.95522594       7.22817707      11.05601883  F       0.00000000       0.00000000       0.00000000       0.30514851       0.21455395      -0.33374998      -4.54157209
Se       7.02763939      18.74556732       8.12843227  F       0.00000000       0.00000000       0.00000000      -0.31704849       0.49214208      -1.68070889      -4.50929403
Se       6.96538411       7.25413716      13.77532452  T      -1.28003125       0.71845874       0.57032203       0.00340122       0.01323159       0.01703535      -4.35241842
Se       7.12474823      15.85209751      10.95890999  F       0.00000000       0.00000000       0.00000000       0.62144893      -0.57301760      -0.95094633      -4.42827320
Se       7.12474823       4.33470774      10.95890999  F       0.00000000       0.00000000       0.00000000       0.01157879       0.07910890      -0.02374917      -1.94101584
Se       9.85811710      15.85209751       8.22554111  F       0.00000000       0.00000000       0.00000000      -0.67451358      -1.11919260       0.93309700      -4.04047871
Se       9.86664778       4.39983787      14.07848403  T       0.02994303      -0.97963184       0.01612079       0.00417939       0.00125769      -0.00863267      -4.43122339
Se       7.16790238      13.08120285      13.77897040  T      -0.35650018       0.52746065       0.34093268      -0.00163661      -0.02164367      -0.00541882      -4.31565952
Se       7.21429896       1.54863590      14.02045567  T       0.79610233      -0.15834056      -1.77877975      -0.01580035       0.00769980      -0.00535557      -4.39569998
Se       9.85811710      12.98687172      10.95890999  F       0.00000000       0.00000000       0.00000000      -0.08178078       0.07989050      -0.58380580      -4.41146231
Se       9.90068143       1.46691152      16.69046239  T      -2.62915875      -1.05215238      -0.94865413       0.00076224       0.00839265       0.01060714      -4.33132792
Se       9.94511599      10.11950838      13.71293214  T       0.66525046       0.29482762      -0.52592817       0.00404719       0.00624241      -0.01195131      -4.34244347
Se       9.95522594      21.61079216       8.12843227  F       0.00000000       0.00000000       0.00000000       0.27613699      -0.43595725      -1.62579894      -4.50088215
Se       7.02763939      10.09340286      11.05601883  F       0.00000000       0.00000000       0.00000000      -0.31320429      -0.27622592      -0.34660414      -4.51138020
Se       7.02763939      21.61079216      11.05601883  F       0.00000000       0.00000000       0.00000000      -0.00426186      -0.01673207       0.14855951      -4.34029722
O        8.97943582      15.68947568      19.27838039  T       3.20324024       6.83066145       5.88132876      -0.01439181      -0.02052426       0.08342898      -6.88523483
C        8.49903056      15.87654082      20.42398837  T       2.57411425       5.55958349       0.67516333       0.01064858       0.05414644      -0.03260779      -7.65584183
C        7.29966382      16.72904277      20.65801712  T      -0.16885117       1.07343633       1.88062347      -0.02687627       0.01420972      -0.01392541      -9.68119240
H        7.14769522      13.26713802      20.41319958  T      -0.88882099      -0.45445254       0.89135747       0.00329662      -0.02951515      -0.01100981      -3.37085962
H        9.01861776      15.42017851      21.28886774  T      -0.55486692      -0.24784137      -0.30180247       0.02283560      -0.03022051      -0.03087124      -3.74068975
H        6.91286638      16.52658591      21.66861122  T      -0.10219129      -0.03786796       0.14392390       0.01293234       0.01207514       0.01801198      -3.63782334
H        6.52009686      16.51136228      19.91291906  T       0.10799420      -0.25059810      -0.24597806      -0.02036688      -0.01101930      -0.02435440      -3.65890741
H        7.55652984      17.79794091      20.58103935  T      -0.44428520       0.13396158       0.24740168       0.04350542       0.00082695      -0.00443694      -3.65136790
H        4.20425714      19.79093916      17.94252076  T      -2.13014260       2.12200664      -1.10523610      -0.02803530       0.00149977      -0.05420709      -3.17059708
