121
Lattice="11.32190990447998 -0.0 -6.999999919513338e-16 -3.700000002833815e-15 23.034778594970703 -5.66095495223999 -0.0 4.2000001634662394e-15 33.96573257446289" Properties=species:S:1:pos:R:3:move_mask:L:1:momenta:R:3:forces:R:3:energies:R:1 adsorbate_info="_JSON {\"site\": {\"coordinates\": [5.660955109999999, 20.178179423333333, 16.229043006666668], \"connectivity\": 3, \"topology\": [16, 48, 95], \"n_vector\": [0.16352797081640436, 0.24862323859027494, 0.9546963328690188], \"h_vector\": [0.5550448299754552, 0.5818202220639997, 0.5944833605029798], \"site_formula\": {\"Cu\": 1, \"Se\": 2}}, \"smiles\": \"S1S\", \"mdf\": 1.184656875514509, \"adsorbate_formula\": \"C2H6O\"}" bond_change_count=0 energy=-607.5723876953125 stress="0.00023115705698728561 2.956656544483849e-06 -1.639599577174522e-05 2.956656544483849e-06 4.866058588959277e-05 -5.946168585069245e-06 -1.639599577174522e-05 -5.946168585069245e-06 7.31967666069977e-05" free_energy=-607.5723876953125 pbc="T T F"
Cu      -0.02750805      20.73440558      15.07745229  T       0.38801088       0.00342118       1.72564605       0.00005176      -0.03939518      -0.00882629      -3.80150127
Cu      -0.12190211       8.73968427      15.21430987  T       0.41732297       0.67923951      -0.24764984       0.00307094      -0.00691256      -0.00457576      -4.22718096
Cu       2.84325374      20.18042706      12.47816872  T       0.59546206       0.49852182       1.34987309      -0.00317116      -0.00579755       0.01686503      -4.15025282
Cu       2.71361203       8.88083031      18.07665247  T       0.41376513      -0.13502869      -0.20128070       0.00689361       0.00690025      -0.00820674      -4.20110178
Cu       2.58397309      13.37817590      17.64383502  T      -1.08537842      -2.16583765      -1.16331647      -0.01275314      -0.02355067       0.03331976      -3.48843646
Cu       2.94019433       2.80273690      18.26435798  T      -1.03307215       1.65169236      -0.67164657       0.00631568       0.00093385      -0.02096981      -4.11046362
Cu       0.11585333      14.47981146      15.17001215  T      -1.45139290       0.43834881      -0.46872691      -0.02097900      -0.00521898      -0.00011429      -4.19564915
Cu      -0.11200447       2.74398431      20.80815073  T      -0.28457882      -1.55547966      -0.00116122      -0.00900718       0.00623623      -0.00198835      -3.71024942
Cu       0.00000000      20.17817879       9.59222507  F       0.00000000       0.00000000       0.00000000       0.01468455      -0.01016103       0.12982166      -4.22940445
Cu       0.00000000       8.66078949       9.59222507  F       0.00000000       0.00000000       0.00000000      -0.00957472      -0.00477999       0.65919554      -2.35355854
Cu       2.83047748      20.17817879       6.76174784  F       0.00000000       0.00000000       0.00000000      -0.00729168      -0.00252608       0.62625855      -3.45365715
Cu       2.78940427       8.62846304      12.41674348  T       1.18172737      -0.48550802       0.36870648       0.01957467      -0.00108135      -0.00403265      -4.23579359
Cu       2.81203516      14.42222686      12.26329558  T       0.08571954      -0.31270425       0.02090167       0.00918378       0.00350704      -0.01420477      -3.88249087
Cu       2.43353128       3.39394215      12.83544114  T      -3.14653786       0.35923866       0.89404852       0.01445277       0.00019501       0.02100456      -3.72537541
Cu       0.00000000      14.41948509       9.59222507  F       0.00000000       0.00000000       0.00000000       0.00554986       0.27904660       0.12755641      -3.67674065
Cu       0.01363027       2.89909314      15.38032097  T       0.76134985       0.34178995       0.37932296      -0.00981192       0.00293903       0.00871827      -4.22561646
Cu       5.87608091      19.66688508      15.12091217  T       0.07438724      -0.27745368      -1.67768745       0.00090784      -0.01424278      -0.04696503      -3.87372875
Cu       5.53131450       8.73820714      15.21490821  T       0.95881557      -0.26483378       0.68495578       0.00844923      -0.00609559      -0.00511244      -4.22030783
Cu       8.49503074      20.17683930      12.32100675  T       0.41304715      -0.07806301      -0.17884089       0.00993833       0.00937236       0.01553955      -4.21572781
Cu       8.37419490       8.87522677      18.06866692  T       0.14520527       0.84268435      -0.38461014       0.00736249       0.00282824       0.00099622      -4.19986725
Cu       8.27907725      13.38257306      17.63643596  T      -0.73209458      -2.56060456       1.00098579      -0.02598311       0.00507034       0.00044188      -3.46589661
Cu       8.55047313       2.88409699      18.22557406  T       0.39898126      -0.08304759      -0.70072692      -0.01548664      -0.00918172       0.00976011      -4.18239164
Cu       5.80120053      14.53144949      15.24153707  T      -0.48796596      -0.18244646      -0.46973894       0.02236141       0.03050618       0.01058022      -4.18951321
Cu       5.54215687       2.95072875      20.76544438  T      -0.49409822      -0.42983368      -0.52627281      -0.00162912      -0.00275415       0.00099915      -3.75206661
Cu       5.66095495      20.17817879       9.59222507  F       0.00000000       0.00000000       0.00000000      -0.01618153       0.00091013       0.14920744      -4.22967625
Cu       5.66095495       8.66078949       9.59222507  F       0.00000000       0.00000000       0.00000000      -0.01167422      -0.00762602       0.65776777      -2.35243344
Cu       8.49143314      20.17817879       6.76174784  F       0.00000000       0.00000000       0.00000000      -0.00781729      -0.00266491       0.62575674      -3.45389056
Cu       8.44979797       8.62523255      12.41583597  T      -0.50634600       0.57736489       0.33838403       0.00809269      -0.00684888      -0.00757750      -4.23626852
Cu       8.63204385      14.57825846      12.31152917  T       0.21230706      -0.00794076      -1.68374529      -0.03054954      -0.01535534       0.00939974      -4.18389416
Cu       8.12419124       3.37142952      12.79680336  T      -2.93855756       2.06351453       0.95399681       0.01108813       0.00576576       0.02778998      -3.69789052
Cu       5.66095495      14.41948509       9.59222507  F       0.00000000       0.00000000       0.00000000       0.03029141       0.30317184       0.11864761      -3.67484403
Cu       5.67256812       2.92596686      15.41814141  T       1.03831033      -1.23769619      -0.55005919      -0.01419697      -0.00213590       0.00934012      -4.21080112
W       -0.03978060      20.23133390      12.37241548  T       0.92043770      -0.19111957       1.17403976       0.01768259       0.00594045       0.01658043     -11.72758961
W       -0.09927607       9.03965201      18.06184312  T       0.11228341       1.80527350      -0.32555643      -0.01680066       0.01111637       0.01754758     -11.61159039
W        2.94142341      14.43387430      15.21731524  T      -1.71058931      -0.07685016      -0.63961391      -0.00448920       0.00812186      -0.00859100     -11.56263256
W        2.66609206       2.96542531      20.88805054  T       0.25570879      -3.23557211      -2.30330190      -0.00163084      -0.00281802       0.03524166      -9.79146767
W        0.00000000      20.17817879       6.76174784  F       0.00000000       0.00000000       0.00000000       0.03754644      -0.03932746       2.32748175      -7.39071178
W       -0.03053188       8.67520182      12.41901376  T       0.44266422      -0.12697587       0.40939295      -0.04264455      -0.04362842      -0.01492381     -11.73362064
W        2.83047748      14.41948509       9.59222507  F       0.00000000       0.00000000       0.00000000       0.14202607       1.26239014       0.16453671      -9.83428001
W        2.83994751       2.90251546      15.45111697  T       0.47585389      -1.96600729       0.29460806      -0.01093885       0.01604364       0.02803208     -11.76298141
W        5.70772593      20.12106312      12.37767914  T      -0.88116971       1.91065031      -2.45955671      -0.00765277      -0.03327489      -0.00876850     -11.69202614
W        5.55342815       9.02912679      18.06154468  T       0.43086027       0.55110830       1.52538252       0.00307421      -0.00852840       0.01461084     -11.61915874
W        8.59977045      14.38029391      15.14123260  T       1.06372632      -1.33720463      -1.26899756      -0.00411482       0.00335443       0.01427141     -11.72173214
W        8.36598729       2.88502556      20.84339081  T      -0.85642588      -0.13364014      -1.28338630      -0.01670173       0.01353276       0.01299083      -9.93184185
W        5.66095495      20.17817879       6.76174784  F       0.00000000       0.00000000       0.00000000       0.02872851      -0.03427119       2.32898140      -7.39175320
W        5.62952505       8.67801934      12.41770795  T       2.19686521      -0.99778592       2.40982715      -0.06105707      -0.06170064       0.00179213     -11.73619652
W        8.49143314      14.41948509       9.59222507  F       0.00000000       0.00000000       0.00000000       0.23819664       1.38190007       0.48391688      -9.73348904
W        8.49966766       2.95937622      15.41027065  T      -1.20713425      -0.56963594       2.12449780      -0.00324382       0.00206907       0.01486945     -11.78273964
Se       4.36597961      17.97977173      15.96271585  T      -1.44318872       0.32244856      -2.00761198      -0.02869794       0.01064903       0.00381368      -2.82786489
Se       4.23048769       7.47014115      16.83884418  T       1.95903535       0.47454519       0.74834698       0.00785575      -0.03470435      -0.02652865      -4.34728527
Se       1.24020756      18.89418713      13.86298360  T      -0.48883641      -0.20043982      -1.55485530       0.00916501      -0.00050655       0.04112557      -4.33509779
Se       1.16485347       7.64758597      19.45369038  T      -1.61353647       0.66230789      -2.59434285      -0.00539513      -0.00145055      -0.00327593      -4.01957941
Se       1.58326038      15.42218061      16.90862498  T       0.87035459       0.80829605      -0.96891262      -0.03832643       0.02084458       0.01413428      -4.40269756
Se       1.46790559       4.23512472      16.86277195  T       1.90537085      -0.53849358      -0.89499191      -0.01991654       0.00397121       0.01593009      -4.30916595
Se       4.28552259      16.22032023      14.29697292  T      -0.83675348       1.35087725       1.28320125       0.00302248       0.02798975      -0.01189032      -4.40127659
Se       3.98225354       4.48794934      19.61619507  T      -0.35408643      -0.02120192      -0.12864957       0.02090041      -0.00130402      -0.00119863      -4.37000990
Se       2.05299053      11.69689700      19.18386498  T       2.25049167      -0.05569955      -1.67616912       0.01758891      -0.01567118      -0.01049501      -3.28898144
Se       1.56913599       1.19592675      19.75045180  T       0.70522717       0.84693740       1.32418806      -0.04075110      -0.02372221       0.00098622      -4.52380991
Se       4.38245160      12.83188719      16.22973154  T      -0.86861395      -0.04502799      -0.71409969       0.00444988      -0.05201931       0.04270913      -4.44501305
Se       4.10685259       1.91893393      22.41491153  T      -1.68980447       2.12617210      -2.70171019       0.05328098      -0.00055143       0.01267278      -4.02893496
Se       4.20109379      10.45749460      19.45148393  T       2.55303542      -0.88944626      -0.97420812      -0.02527374       0.04092649      -0.00117517      -3.92752838
Se       4.44400892      21.39827373      13.93876718  T       1.84328379       0.15837321      -1.09984078       0.00975049      -0.02414225      -0.04199004      -4.34047222
Se       1.26882919      10.24387366      16.52392728  T      -1.30966641      -0.50658431      -0.33653939       0.01629578      -0.00749854       0.02938686      -4.32095480
Se       1.70125162      22.26894865      15.62175110  T       2.57201030      -0.66795348       0.98640393       0.00094900       0.01356849       0.01192909      -2.83472729
Se       4.29427099      18.74556732      11.05601883  F       0.00000000       0.00000000       0.00000000      -0.13822943       0.04652641       0.05310335      -4.33879852
Se       4.29427099       7.22817707      11.05601883  F       0.00000000       0.00000000       0.00000000       0.31425375       0.21666731      -0.30778721      -4.53921986
Se       1.36668432      18.74556732       8.12843227  F       0.00000000       0.00000000       0.00000000      -0.31641853       0.49740469      -1.68155670      -4.51020908
Se       1.27744091       7.27011400      13.80238075  T      -0.89230505       1.05478755      -1.19407052       0.00229941      -0.00887641      -0.02645647      -4.34285736
Se       1.46379328      15.85209751      10.95890999  F       0.00000000       0.00000000       0.00000000       0.56855792      -0.38800329      -0.78961372      -4.48381853
Se       1.46379328       4.33470774      10.95890999  F       0.00000000       0.00000000       0.00000000       0.02378860       0.07208053       0.00185999      -1.93600702
Se       4.19716167      15.85209751       8.22554111  F       0.00000000       0.00000000       0.00000000      -0.65576059      -1.10217369       0.98993784      -4.02395296
Se       4.14437251       4.41370537      14.15342939  T      -0.30026566      -1.16759294       0.37980025      -0.01767165      -0.00889173      -0.00336481      -4.43141365
Se       1.58363902      13.11095505      13.76553879  T      -1.34021444       0.67277112       0.29153364      -0.02811151      -0.03413260      -0.00667944      -4.42650223
Se       1.52398974       1.52949337      14.00810530  T       0.02682084      -0.09046194       0.31426330       0.01760082       0.02578683       0.01024440      -4.39465475
Se       4.19716167      12.98687172      10.95890999  F       0.00000000       0.00000000       0.00000000       0.03286025       0.03433640      -0.44290665      -4.46705103
Se       4.21454280       1.41295580      16.70135297  T      -0.35849177       0.62758110      -0.65170364      -0.00056319       0.02224951       0.02313093      -4.34733391
Se       4.25123828      10.13892177      13.67976909  T       1.53885830      -0.42323502      -2.06809717       0.01197109       0.00228210       0.00520098      -4.33666229
Se       4.29427099      21.61079216       8.12843227  F       0.00000000       0.00000000       0.00000000       0.27574620      -0.44252783      -1.62635326      -4.50284338
Se       1.36668432      10.09340286      11.05601883  F       0.00000000       0.00000000       0.00000000      -0.37682679      -0.30826014      -0.31320551      -4.50860310
Se       1.36668432      21.61079216      11.05601883  F       0.00000000       0.00000000       0.00000000       0.22252181       0.05424950      -0.03209035      -4.33353281
Se       9.65930045      19.45449362      16.36939568  T       2.30499796       1.48135349      -0.17478148       0.00864781       0.00951891      -0.02596238      -3.28975439
Se       9.90495596       7.47381023      16.84016636  T      -0.49595863       0.19670844       1.04450868       0.01287824      -0.03884427       0.00200258      -4.34666204
Se       7.11891325      18.52461097      13.45354697  T      -0.07147217       0.89463875      -0.43140962       0.01556481       0.01149190      -0.00145376      -4.38916969
Se       6.82033406       7.63162797      19.44125683  T      -1.97822928       0.70007328      -0.75492600       0.03591731      -0.01760769       0.02484950      -4.01812029
Se       7.37381874      15.48256597      16.87004787  T       0.86165805      -1.08184314      -0.58340713      -0.01556642      -0.02448918       0.00188271      -4.37951851
Se       7.15464916       4.36726217      16.77146063  T      -1.08552937      -0.27031568      -1.92846366       0.00076297      -0.00514826       0.00838994      -4.30556917
Se       9.90266351      15.98833743      13.98042545  T      -0.76208421       0.00249022       1.72439017       0.00194706      -0.03110193      -0.00345305      -4.33501339
Se       9.80650770       4.39672166      19.68250744  T      -1.34444282       0.36551454       0.77178218      -0.02524272       0.00012852       0.00618996      -4.35289955
Se       7.71051275      11.71083483      19.16903820  T       0.03394445       1.05971288      -1.88929365       0.01021683       0.02597752      -0.01649849      -3.29839993
Se       7.04160724       1.47759263      19.51909274  T       0.80195297       1.04071592       2.04057085      -0.00022909      -0.00145395       0.00698530      -4.44139576
Se      10.00668032      12.75154570      16.17263255  T      -1.37931856      -0.86426273      -0.44309023       0.00401556      -0.00561180       0.01441959      -4.43293190
Se       9.69002300       1.47167930      22.16592269  T      -0.79770713       2.24547570      -2.20121978       0.01048306       0.00118518      -0.01947430      -4.05361795
Se       9.84839071      10.47248170      19.43450661  T       1.91851228      -1.30757724      -0.61947498       0.05883390      -0.01850006      -0.00177529      -3.92008352
Se       9.87819300      21.80624179      13.50028723  T       0.86074826      -0.29770977      -0.23640732      -0.01359944       0.00302025       0.03864381      -4.37416077
Se       6.92120928      10.24403472      16.53604353  T       0.37549934      -1.00017838       0.89718398       0.02249630       0.00193720      -0.02155976      -4.32278442
Se       7.64465563      20.40279506      16.69898014  T       0.08975438      -0.26186776      -2.60931554      -0.01835063       0.00817847       0.02210646      -3.14844704
Se       9.95522594      18.74556732      11.05601883  F       0.00000000       0.00000000       0.00000000       0.22997501      -0.10319377       0.03536890      -4.33376026
Se       9.95522594       7.22817707      11.05601883  F       0.00000000       0.00000000       0.00000000       0.31491864       0.20347856      -0.31291538      -4.54119110
Se       7.02763939      18.74556732       8.12843227  F       0.00000000       0.00000000       0.00000000      -0.31612766       0.48994443      -1.68031752      -4.50945044
Se       6.93288579       7.27102138      13.80225433  T       1.09601033       0.65118027      -0.63416881       0.00328294      -0.01090128      -0.01460726      -4.34325886
Se       7.12474823      15.85209751      10.95890999  F       0.00000000       0.00000000       0.00000000       0.62892294      -0.57039917      -1.02101088      -4.41491652
Se       7.12474823       4.33470774      10.95890999  F       0.00000000       0.00000000       0.00000000       0.00025681       0.09557972      -0.06932124      -1.94296157
Se       9.85811710      15.85209751       8.22554111  F       0.00000000       0.00000000       0.00000000      -0.70421660      -1.13672960       0.93026948      -4.04239941
Se       9.84975383       4.39981094      14.07901873  T      -0.91663079      -0.48072852       1.33525987      -0.01299265      -0.00180900      -0.00584809      -4.43126202
Se       7.15588959      13.15986161      13.69498466  T      -0.95010147       1.11188917       0.53451175       0.00424582       0.00993093       0.00894481      -4.29958200
Se       7.16180336       1.56399374      14.00890619  T       2.74700941      -0.89679778      -0.69367719      -0.00254684       0.02602306      -0.00326187      -4.39728975
Se       9.85811710      12.98687172      10.95890999  F       0.00000000       0.00000000       0.00000000      -0.06921793       0.09721002      -0.58297557      -4.41330433
Se       9.83977083       1.45141753      16.66652207  T      -0.54152656       1.13245933      -0.65211017      -0.00967511       0.01169166       0.01125479      -4.31582451
Se       9.91015211      10.13065223      13.68305864  T       1.07969607      -1.24658797      -1.22965326       0.01322767       0.00560682      -0.01378986      -4.32789755
Se       9.95522594      21.61079216       8.12843227  F       0.00000000       0.00000000       0.00000000       0.27149904      -0.43189263      -1.62252367      -4.50110054
Se       7.02763939      10.09340286      11.05601883  F       0.00000000       0.00000000       0.00000000      -0.35467875      -0.29824057      -0.33118296      -4.51176357
Se       7.02763939      21.61079216      11.05601883  F       0.00000000       0.00000000       0.00000000      -0.26266441       0.08540811       0.09968227      -4.33345938
O        5.73177549      19.77255456      18.52863331  T      -0.54100429       2.35184083       1.14366809       0.01101279       0.04003263       0.00577566      -6.46956968
C        4.55841661      20.56370137      18.68942096  T      -0.10752934      -0.70319111       0.87037670      -0.03842938       0.03673768       0.04194242      -9.67079830
C        4.97099688      21.95288755      19.13425163  T      -0.25251758      -0.49581618       1.83132193       0.02569070       0.00024360      -0.01855790      -9.43393517
H        3.97290776      20.58388321      17.75099654  T      -0.17595760      -0.69253913      -0.01022359       0.00765651       0.02487915       0.01909815      -3.58353090
H        3.94412182      20.06696151      19.45890806  T      -0.06649459      -0.31085488       0.05361211      -0.04426415      -0.02248856       0.02365917      -3.49978471
H        4.06746667      22.55499271      19.31918804  T      -0.02132298       0.01370341       0.41789169       0.03143717      -0.03607344       0.02158561      -3.62697792
H        5.56797049      22.44141761      18.35241525  T      -0.14630949      -0.13751189      -0.03474150       0.02317091       0.02085106       0.01609337      -3.67796230
H        5.56939576      21.89952170      20.05415650  T       0.20428156      -0.03736501       0.14264636      -0.02564605      -0.02602421      -0.02118974      -3.63373590
H        5.49475212      19.01307944      17.94782639  T      -0.32600418      -0.04109620       1.06391605      -0.03467140      -0.03561690      -0.04602540      -3.43071723
