50
Lattice="10.06605052947998 -0.0 -6.000000233523199e-16 2.9999999050033628e-15 10.486835479736328 4.460142135620117 -0.0 3.79999986555371e-15 31.220993041992188" Properties=species:S:1:pos:R:3:move_mask:L:1:momenta:R:3:forces:R:3:energies:R:1 adsorbate_info="_JSON {\"site\": {\"coordinates\": [1.67767513, 9.55919647, 21.65746117], \"connectivity\": 1, \"topology\": [27], \"n_vector\": [-0.1358514365547703, -0.5217384762862295, 0.8422193001520025], \"h_vector\": [1.0, 0.0, 0.0], \"site_formula\": {\"Pd\": 1}}, \"smiles\": \"Cl\", \"mdf\": 1.701957677669589, \"adsorbate_formula\": \"HO\"}" bond_change_count=0 energy=-348.545654296875 stress="0.0003949123783968389 -5.49029607554985e-07 2.11815927286807e-06 -5.49029607554985e-07 0.00041120927198790014 0.00013590835442300886 2.11815927286807e-06 0.00013590835442300886 0.0001517443306511268" free_energy=-348.545654296875 pbc="T T F"
Zr       1.68496266       3.75286995      19.60450198  T      -0.27020084       2.17680544       2.85472545      -0.00645004       0.02281216       0.02566583      -8.99182320
Zr       0.01084765       1.67218808      17.04388960  T      -1.16851692       0.52518411       0.88556924       0.03088505       0.00870118      -0.02640986      -9.30554581
Zr       0.00538124       9.07456801      19.19391106  T      -0.75450560       1.17064922       1.47715919      -0.01079231       0.02702485       0.00198467      -9.16061687
Zr       1.68990818       6.64213998      21.84677349  T       1.36670112       0.19292069       0.30076513      -0.00843610      -0.00967962       0.01703918     -10.39419270
Zr       1.67767513       3.75169039      14.96724892  F       0.00000000       0.00000000       0.00000000       0.00067179       0.23891923      -0.19089282      -8.39953041
Zr      -0.00000000       1.49172723      12.73717785  F       0.00000000       0.00000000       0.00000000      -0.07892727       0.11362669       0.51032585      -7.64450407
Zr      -0.00000000       8.99510765      14.96724892  F       0.00000000       0.00000000       0.00000000      -0.00880451      -0.71475732       0.45533574      -7.37814760
Zr       1.67809283       6.89799087      16.97645715  T      -1.00296965       0.25672068      -1.91625322       0.01585617      -0.01909073       0.00985846      -9.17735577
Zr       4.96172525       3.90844799      19.35854213  T       0.06608166       1.50267473       0.24412845       0.01589588       0.02834816       0.00546044      -9.14460182
Zr       3.34571305       1.67082758      17.04418949  T      -0.83134915       0.11479749       2.28181366      -0.03058333      -0.00877662      -0.01244766      -9.30353737
Zr       3.35140597       9.07384915      19.20699974  T       1.87832135      -0.15438844       0.13182644      -0.00111367       0.03743147      -0.01142518      -9.15776157
Zr       5.03988162       6.88698135      21.10018856  T       1.19417795      -2.74227025      -3.39329906       0.00358226       0.01727225       0.00991854      -8.47018623
Zr       5.03302526       3.75169039      14.96724892  F       0.00000000       0.00000000       0.00000000      -0.09640049       0.08457935       0.11386937      -8.40493202
Zr       3.35535026       1.49172723      12.73717785  F       0.00000000       0.00000000       0.00000000       0.08935316       0.11716858       0.51764095      -7.64377499
Zr       3.35535026       8.99510765      14.96724892  F       0.00000000       0.00000000       0.00000000       0.01382364      -0.72368562       0.44935217      -7.37604189
Zr       5.01952482       6.83862411      17.03458570  T      -0.04276135      -0.79192208      -2.28507989       0.00534290      -0.00122726      -0.02439052      -9.20357513
Zr       8.47292892       3.90350765      19.36347531  T      -0.19867033       0.09005916       2.36406598      -0.00631718       0.04912113       0.02370760      -9.14406776
Zr       6.71303620       1.39569195      17.35766573  T       0.02585124      -1.79972413      -1.24614489       0.00115852       0.01432710      -0.00527759      -9.18630219
Zr       6.71104728       9.13007041      19.23269397  T      -2.42265221       0.56500528      -0.92469315       0.00884314       0.03439353       0.03383996      -9.13701344
Zr       8.39721297       6.88979849      21.11469076  T      -0.07341001       0.32390188      -1.54066902       0.03030495      -0.01344636      -0.03274632      -8.46846581
Zr       8.38837528       3.75169039      14.96724892  F       0.00000000       0.00000000       0.00000000       0.10354988       0.08166789       0.10921547      -8.40420818
Zr       6.71070051       1.49172723      12.73717785  F       0.00000000       0.00000000       0.00000000      -0.01035435       0.05503434       0.49184462      -7.61103821
Zr       6.71070051       8.99510765      14.96724892  F       0.00000000       0.00000000       0.00000000      -0.00360561      -0.78874606       0.55421901      -7.36226273
Zr       8.40473120       6.83899860      17.02856435  T      -2.16818580      -0.10454453      -2.28097681      -0.01103075       0.00126012      -0.01792315      -9.20142365
Pd       1.67561987       1.05557328      19.08380662  T       0.49384459       1.30491276      -1.14317305       0.01171767      -0.02764043       0.05346094      -4.66425133
Pd      -0.28218740       4.65012396      21.66572571  T       1.48058063       0.94912680      -0.78226110       0.00186738       0.01709419      -0.04806367      -4.29864693
Pd       0.22868694       6.21121944      19.33600521  T      -1.87784107       0.22316727       0.08600070      -0.05038947      -0.03383470       0.04404038      -6.08206749
Pd       1.66607255       9.45236132      21.45575302  T      -0.54681452       4.25879605      -5.68918536       0.00850433       0.00057571      -0.02152167      -5.20207405
Pd       1.67767513       0.92763877      14.96724892  F       0.00000000       0.00000000       0.00000000       0.00190974      -0.07484850      -0.95900011      -6.12119007
Pd       0.09246858       4.44495744      17.19079016  T      -0.91163080       0.24982531      -0.19335759       0.00736560      -0.00472645      -0.02439513      -6.10205269
Pd      -0.00000000       6.17105627      14.96724892  F       0.00000000       0.00000000       0.00000000      -0.05789762       0.39848232      -0.33354047      -5.00089121
Pd       1.67996616       9.86849989      16.94496635  T       1.90740874       3.04801101      -0.83938116      -0.00493728      -0.01087146      -0.00257307      -5.97251797
Pd       4.58686624       1.19865970      19.26541425  T      -0.32007335       0.58543815      -2.12999390       0.01738612      -0.03327492       0.01065353      -4.43274021
Pd       3.66420636       4.64558602      21.65863493  T      -0.89283364       1.48009351      -0.79105041      -0.02224037      -0.00276680      -0.01547528      -4.30353260
Pd       3.13485281       6.20913814      19.34116477  T       0.13194830      -1.18336964       0.73338653       0.01623801      -0.03474683      -0.02140699      -6.08292580
Pd       4.88576774       9.63607171      21.57550812  T       0.37610480      -0.78366964       0.01081539      -0.01219292      -0.00551611      -0.00917027      -5.11598206
Pd       5.03302526       0.92763877      14.96724892  F       0.00000000       0.00000000       0.00000000       0.16720758       0.17206830      -0.63090724      -6.14607000
Pd       3.26769430       4.44403680      17.18791993  T      -0.54588443      -1.59158636      -1.26480465      -0.01272479       0.00500727      -0.00447614      -6.10283279
Pd       3.35535026       6.17105627      14.96724892  F       0.00000000       0.00000000       0.00000000       0.07160261       0.40655577      -0.32311791      -4.99960518
Pd       5.03210108       9.84887241      16.94336357  T       0.57651108       0.89597494      -3.33175044       0.00698941      -0.00825275       0.01124198      -5.97851419
Pd       8.83702913       1.19198521      19.26285533  T      -0.06187949       2.12694567      -4.57039864      -0.03027572      -0.03097859       0.02494237      -4.43330717
Pd       6.72042399       4.74276649      21.56638443  T       0.56618443       0.95992545      -1.33439101      -0.00013325      -0.01315701      -0.04760321      -4.47564793
Pd       6.72313367       6.13975919      19.12548610  T      -1.06307134      -0.80793990       0.80310284       0.01195800       0.00219427      -0.00576055      -6.13452291
Pd       8.54781709       9.63610225      21.57288317  T       2.38236253       0.25621319       0.01219717      -0.00128637      -0.00830862      -0.01230537      -5.12625074
Pd       8.38837528       0.92763877      14.96724892  F       0.00000000       0.00000000       0.00000000      -0.16642323       0.17367300      -0.63150465      -6.14542723
Pd       6.71287984       4.26607639      17.08713699  T       1.18223715       0.18761878      -0.83601039       0.00309922       0.02909137       0.02353809      -6.08883333
Pd       6.71070051       6.17105627      14.96724892  F       0.00000000       0.00000000       0.00000000      -0.00486233       0.48865703      -0.06194229      -5.00063086
Pd       8.38667124       9.85167888      16.94170634  T       1.55035909      -0.59114473      -2.54310721      -0.00078837      -0.01509741       0.01023436      -5.97745705
O        1.72914422       6.70475251      23.77699260  T       0.13916831      -6.09774653       4.60300814       0.00928811       0.03910141       0.02079752      -7.46588516
H        1.79556765       6.97915367      24.70177440  T      -0.07079654      -0.29626735       0.03264032      -0.01743398      -0.08075836      -0.05390996      -3.42073965
