49
Lattice="11.863972663879395 0.0 -0.190369114279747 -2.7065036296844482 9.11697769165039 -0.3595939874649048 0.0 0.0 33.15761184692383" Properties=species:S:1:pos:R:3:move_mask:L:1:momenta:R:3:forces:R:3:energies:R:1 adsorbate_info="_JSON {\"site\": {\"coordinates\": [3.89007894, 5.989430903333333, 19.850228626666667], \"connectivity\": 3, \"topology\": [7, 23, 33], \"n_vector\": [0.46477124344000986, 0.01997253195095509, 0.8852055067828574], \"h_vector\": [0.4403568420437517, -0.7851021972424235, 0.4355460843015043], \"site_formula\": {\"Ga\": 2, \"Y\": 1}}, \"smiles\": \"S1S\", \"mdf\": 1.159986326187003, \"adsorbate_formula\": \"H\"}" bond_change_count=0 energy=-249.863037109375 stress="0.0003268227446824312 1.873833934951108e-05 2.9753527996945195e-07 1.873833934951108e-05 0.00029585242737084627 -8.071370757534169e-06 2.9753527996945195e-07 -8.071370757534169e-06 6.26870896667242e-05" free_energy=-249.863037109375 pbc="T T F"
Ga       3.24860999       2.80148099      15.22564822  T      -1.35448338      -0.40200268      -0.15566272      -0.00977322      -0.01567663      -0.02018412      -3.28911901
Ga      -1.10344553       6.34772587      13.41262531  F       0.00000000       0.00000000       0.00000000       0.12422852      -0.02312071      -0.34915245      -3.10953712
Ga       3.18696737       0.77623945      11.74798393  F       0.00000000       0.00000000       0.00000000       0.26429176       0.14918625       0.27034929      -2.58238769
Ga       4.78001213       1.24975562      13.82387161  F       0.00000000       0.00000000       0.00000000       0.15142514      -0.07139808      -0.48612911      -3.27017856
Ga       0.43193507       4.79524708      11.89482021  F       0.00000000       0.00000000       0.00000000      -0.10897852      -0.30867460       0.10514215      -2.55125618
Ga       0.49858608       6.83338494      15.39446770  T       0.58594744      -1.24199816      -0.53142672       0.01459172      -0.01772337      -0.00661881      -3.30897999
Ga       1.72986870       1.33332674      20.64693373  T       0.55207173      -0.15656042      -1.24102073      -0.01972059       0.03197572       0.02801919      -2.60109282
Ga       3.26483908       4.74466327      18.63956898  T       0.42678588      -0.47419841       1.03925003      -0.03807290       0.01973395       0.04546227      -3.24360180
Ga      -1.05566031       8.31929602      16.93792386  T       0.94510947      -0.94962018      -0.70220964      -0.01816143      -0.01189072      -0.01958304      -3.31755066
Ga       0.50966289       8.72014424      19.00526535  T      -0.48782588      -0.66915370       0.23615404       0.01948715      -0.00856815       0.04483750      -3.10288930
Ga       4.82561970       3.23097803      17.26698106  T      -0.12662356       0.43676164       1.35404488       0.01775222      -0.04623822       0.01609406      -3.30263138
Ga      -1.12977114       5.15024434      20.78617320  T       0.24047098       0.28249943      -2.07933781       0.01068102       0.00081211       0.03023578      -2.67194009
Ga       9.17232649       2.79677721      15.13927371  T       0.53127672       1.29760601      -2.85581032       0.01441550      -0.00419725      -0.02511081      -3.29397488
Ga       4.82854080       6.34772587      13.31744099  F       0.00000000       0.00000000       0.00000000       0.14771873      -0.01320468      -0.34515271      -3.10870314
Ga       9.11895370       0.77623945      11.65279961  F       0.00000000       0.00000000       0.00000000       0.26574647       0.14811181       0.27204758      -2.58319473
Ga      10.71199894       1.24975562      13.72868633  F       0.00000000       0.00000000       0.00000000       0.13368405      -0.06325542      -0.48348919      -3.27047038
Ga       6.36392164       4.79524708      11.79963493  F       0.00000000       0.00000000       0.00000000      -0.10523675      -0.30411801       0.08910434      -2.54972744
Ga       6.43149055       6.82598150      15.31487744  T       2.42290351       0.89678850       0.77922300      -0.00244702       0.00805204      -0.02015493      -3.31223702
Ga       7.64729086       1.31557238      20.55354491  T      -1.12835315       0.02307141      -0.07012665       0.01209513      -0.03199753       0.00458963      -2.61087132
Ga       9.18318949       4.77544404      18.59685239  T      -1.05865828       1.09223646       2.00792738      -0.05185498      -0.02452677      -0.07240901      -3.25193000
Ga       4.85985644       8.31196908      16.86369176  T      -0.53798720       1.58535266       0.45834552       0.01634627       0.00442097       0.05194153      -3.31355762
Ga       6.44570462       8.71881925      18.92041855  T       2.03091061       0.55993342       0.77266421      -0.04214151      -0.00890254       0.03196346      -3.09718704
Ga      10.74380795       3.25150207      17.19000779  T       1.14859585       1.39853172       0.72866866      -0.00500265      -0.02975068       0.02009067      -3.30843449
Ga       4.80249182       5.09183660      20.68510323  T      -0.95756695       0.48067946      -1.01655225      -0.06043137       0.03411002      -0.00717792      -2.46674061
Y        0.35941854       3.78084356      14.73233305  T       0.31538440      -1.35818050      -1.83989284       0.01155835      -0.00610189      -0.02301524      -7.56548977
Y        1.90320456       7.35664511      12.79558849  F       0.00000000       0.00000000       0.00000000      -0.12690802       0.14008397      -0.14414835      -7.14728928
Y        0.26163101       1.78515875      11.22613144  F       0.00000000       0.00000000       0.00000000      -0.14610532       0.05050268       0.84038532      -6.35849667
Y        1.77336216       0.24083631      14.44090843  F       0.00000000       0.00000000       0.00000000      -0.18246530       0.06987624      -0.21793939      -7.52046680
Y        3.35727143       3.78632760      12.41667271  F       0.00000000       0.00000000       0.00000000       0.03114288       0.08075770      -0.11654618      -7.15358973
Y        3.38001930       5.81951038      15.86752665  T       1.63694968      -1.01208703       0.08702283      -0.01486339      -0.00954773      -0.00463668      -7.53428555
Y        4.69982301       2.13748458      20.07573699  T       0.37734876      -1.26256914       1.13156020       0.00426524      -0.01584902       0.00200074      -7.12411213
Y        0.40523774       5.78650741      18.20399993  T      -0.09469312      -0.17337803       2.00173135       0.02282479      -0.02124982      -0.00109265      -7.47163296
Y        4.69293885       0.19448895      16.71824820  T       0.32328018       0.95314237       1.34183430       0.01810280      -0.00606015       0.01964433      -7.55602551
Y        3.51156505       7.65498598      19.57305926  T       0.05315318       0.71829975      -0.57527684       0.01772331      -0.01233868      -0.01644804      -7.22177219
Y        1.75844048       2.23225917      17.81329723  T      -0.80993685       0.18581235      -0.53629191      -0.01523083       0.01868066       0.01492270      -7.53562450
Y        1.92740799       4.35651879      21.12920933  T       0.89780992      -0.05463140      -2.18646933       0.03404846       0.02207857      -0.03813263      -6.64226723
Y        6.29910107       3.78604934      14.62636995  T       0.80893049      -0.44748827      -0.08162989      -0.00026153      -0.02357424      -0.00415536      -7.56235027
Y        7.83519077       7.35664511      12.70040417  F       0.00000000       0.00000000       0.00000000      -0.13579059       0.13411517      -0.12455495      -7.14682293
Y        6.19361734       1.78515875      11.13094711  F       0.00000000       0.00000000       0.00000000      -0.14470103       0.05085127       0.84012043      -6.36034775
Y        7.70534849       0.24083631      14.34572411  F       0.00000000       0.00000000       0.00000000      -0.18556640       0.05328722      -0.18535620      -7.51912212
Y        9.28925800       3.78632760      12.32148743  F       0.00000000       0.00000000       0.00000000       0.03474001       0.07966818      -0.10436363      -7.15248632
Y        9.30042825       5.81733995      15.78016431  T      -0.37465056      -1.17445415      -0.04891388       0.00442977       0.00005447       0.01755660      -7.54796362
Y       10.62883655       2.16268380      19.99574188  T       0.00443147      -0.41181307       1.63202777       0.01371419      -0.01813256       0.00952458      -7.12386608
Y        6.32965551       5.77333298      18.13539300  T      -2.39557212       1.03547276       1.10557122       0.01468276      -0.00743114      -0.01695201      -7.47212791
Y       10.60744658       0.21816358      16.61753458  T       0.83482284      -3.29618517       1.69687873       0.02688679      -0.03480146       0.00571196      -7.55216312
Y        9.44330686       7.75249142      19.36701806  T      -0.51063099      -0.83996487      -0.39105487       0.01659641       0.01038581       0.04917154      -7.13575077
Y        7.68984698       2.24953620      17.73329715  T       0.55178465       0.88677889       1.10383655       0.00607425       0.00025483       0.01392233      -7.53536558
Y        7.81464063       4.25951972      21.04120862  T       0.82177156       0.16717206      -1.25726314      -0.01476662       0.00563692       0.02330834      -6.51226139
H        3.47503501       6.05462258      21.34270501  T       0.27467938       0.11526724       0.02743950      -0.02077390       0.02569342      -0.01364289      -3.89330244
