75
Lattice="8.208702087402344 0.0 -0.6319061517715454 -3.009857416152954 14.187996864318848 -0.7898827195167542 0.0 0.0 30.647449493408203" Properties=species:S:1:pos:R:3:move_mask:L:1:momenta:R:3:forces:R:3:energies:R:1 adsorbate_info="_JSON {\"site\": {\"coordinates\": [-0.3249277500000004, 4.7588027749999995, 19.243517875000002], \"connectivity\": 2, \"topology\": [13, 64], \"n_vector\": [-0.4262719631888857, -0.435685911307417, 0.7927609980866358], \"h_vector\": [-0.5744165792222569, 0.803347798608115, 0.15709203667307917], \"site_formula\": {\"In\": 1, \"Ti\": 1}}, \"smiles\": \"S1S\", \"mdf\": 0.39769471224908937, \"adsorbate_formula\": \"HNO\"}" bond_change_count=0 energy=-552.8140869140625 stress="0.000373388989828527 -4.192369942757068e-06 -1.707809860818088e-05 -4.192369942757068e-06 0.00018082190945278853 3.4164611406595213e-06 -1.707809860818088e-05 3.4164611406595213e-06 0.00017429246508982033" free_energy=-552.8140869140625 pbc="T T F"
In       4.09865046       3.54699922      11.58165550  F       0.00000000       0.00000000       0.00000000       0.00645043      -0.03385600      -0.37512618      -2.29876065
In       7.10850811       3.54699922      12.37153816  F       0.00000000       0.00000000       0.00000000      -0.40831709      -0.02896935      -0.15329227      -3.16061997
In       1.08879316       3.54699922      10.79177284  F       0.00000000       0.00000000       0.00000000       0.11175962      -0.01449462      -0.77637666      -2.17353988
In       2.36570239      10.64099789      12.05558491  F       0.00000000       0.00000000       0.00000000       0.01528199       0.08755352      -0.44501695      -3.11799026
In       4.55468941      10.64099789       9.84391308  F       0.00000000       0.00000000       0.00000000      -0.33130312       0.03794620      -1.00409067      -2.05360460
In      -0.64415509      10.64099789      11.26570225  F       0.00000000       0.00000000       0.00000000       0.27223462       0.02884309      -0.56338829      -2.68764830
In       4.90189484       3.54113318      14.77403143  T      -0.31238157      -2.27211840       0.50920582      -0.00596336      -0.00185693       0.00085626      -3.19984841
In      -0.43181561       3.54465220      16.11260709  T       0.50751445       0.82016222      -1.34992775      -0.01427859      -0.01087838       0.01544017      -3.20016432
In       1.85597305       3.54160087      14.05803756  T       0.29190387      -0.42695120       2.08036235       0.01088598       0.00881563       0.01000750      -3.16845894
In       3.22167834      10.64200585      15.01122267  T      -0.29702847      -0.21533684      -0.22544469       0.02290579       0.01705555      -0.03349839      -3.16818285
In       5.37555981      10.64099789      12.84546757  F       0.00000000       0.00000000       0.00000000       0.14526168       0.13869803       0.17179920      -3.16954494
In       0.20676344      10.62116516      14.25842280  T       2.36612867      -1.01047359       1.91242950      -0.00980967      -0.00693582       0.02164818      -3.16561127
In       5.44472952       3.59445623      18.06566762  T       1.03388985       0.16200788       0.46183298       0.04102837      -0.00385737      -0.03799585      -3.04369259
In       0.75658614       3.64555864      19.16335923  T       3.53702188      -4.42923154     -10.58404262       0.03857836      -0.04701182      -0.03004172      -2.48677349
In       2.69868772       3.53285152      17.03707023  T      -0.16849486       1.31387653       0.30638246      -0.00008604       0.01348504       0.01722875      -3.06176901
In       4.29662496      10.42961881      18.39076531  T      -0.04942679      -2.15153809       2.49161231      -0.05187320       0.04507127       0.06372918      -2.24227953
In      -1.92984699      10.63171886      16.46253233  T       0.88558589       0.56058681      -0.28826951      -0.04410496       0.03422010       0.07753403      -3.15246272
In       1.09107100      10.74797050      17.48935555  T      -0.76643791       0.55225028       1.45778537      -0.06494580      -0.00167733       0.04107790      -2.44760680
N        3.64596028       0.00258474      13.25730929  T       0.24255099      -0.12682766      -0.49810464      -0.00354336      -0.00833321       0.01143310     -11.82710075
N        5.83159876       0.00000000      11.10772610  F       0.00000000       0.00000000       0.00000000       0.48513272       0.04515480       1.47202134      -9.56933784
N        0.63275415       0.00000000      12.52951431  F       0.00000000       0.00000000       0.00000000      -0.23313819      -0.20691349      -0.87255383     -11.83128166
N        2.82174134       7.09399843      10.31784344  F       0.00000000       0.00000000       0.00000000      -1.47786701       1.57120144       3.78105760      -8.02654266
N        5.83159876       7.09399843      11.10772610  F       0.00000000       0.00000000       0.00000000       0.73560435       0.00357439       1.72357023      -9.42099857
N        0.63275415       7.09399843      12.52951431  F       0.00000000       0.00000000       0.00000000      -0.34503606      -0.09976073      -1.07705331     -11.75793648
N        4.45248890      -0.02957299      16.22920827  T       0.04021462      -0.34293044       0.25290295      -0.01018663      -0.04581887      -0.00706953     -11.57082367
N        6.64888192       0.00156673      14.07151030  T      -0.15345120      -0.08779672      -0.07419248       0.01656719      -0.01036989       0.01065941     -11.67469788
N        1.42538085       0.03957526      15.45538462  T       0.23720914       0.10825153       0.05361901       0.03676900      -0.01808274       0.01726953     -11.59533310
N        3.65446682       7.07416546      13.25644661  T      -0.12296137      -0.08787821      -0.25109519       0.00604173       0.00332601       0.05774525     -11.68225670
N        6.65844715       7.08816676      14.05323644  T       0.09124009      -0.05629181      -0.18142339       0.00615835       0.01565172       0.02407317     -11.67868996
N        1.44672048       7.08538850      15.41184379  T       0.08383075       0.00262659      -0.03123255       0.04308469       0.00764348       0.01580001     -11.53332520
N        5.37402787       0.14291129      18.89057419  T       1.30620863       1.95793713      -3.49206055       0.06662501       0.03012096      -0.06818124      -8.77108479
N        7.50331823       0.01172729      17.05396004  T       0.24880230       0.10223316       0.54270597      -0.01489560       0.04327897      -0.00459385     -11.71095085
N        2.22890862       0.02061368      18.22509202  T      -0.44968133       0.10330164      -1.71523309      -0.01469900      -0.03706918       0.03879452      -9.90949821
N        4.44346048       7.13984117      16.18947697  T      -0.17535185       0.08145318       0.38927609       0.00706172       0.00499409       0.03247344     -11.84739971
N       -0.66188169       7.09323140      17.62985584  T       0.27760355       0.83869254      -0.02741480      -0.02057306      -0.00600377       0.03273636     -11.85225868
N        2.23165557       7.10682992      18.19144877  T      -0.97398096       0.26059047      -1.68306153       0.00333120      -0.00007816      -0.02184130      -9.98217106
Ti       4.09865046       8.21739006      11.58165550  F       0.00000000       0.00000000       0.00000000      -0.13511914      -2.30046892      -1.62671351      -8.50873661
Ti      -1.10019410       8.21739006      13.00344467  F       0.00000000       0.00000000       0.00000000      -0.17993192      -0.45843774      -0.74304461      -8.40575790
Ti       1.08879316       8.21739006      10.79177284  F       0.00000000       0.00000000       0.00000000       1.98632407      -1.37289751       0.23692878      -7.37229824
Ti       2.36570239       5.97060633      12.05558491  F       0.00000000       0.00000000       0.00000000       0.11209451       1.12592614      -1.43737400      -8.41559982
Ti       5.37555981       5.97060633      12.84546757  F       0.00000000       0.00000000       0.00000000       0.24773510       0.39320350      -0.87069470      -8.38821507
Ti      -0.64415509       5.97060633      11.26570225  F       0.00000000       0.00000000       0.00000000      -0.93573093       1.18391359       1.23164523      -7.29470730
Ti       2.36570239       1.12339199      12.05558491  F       0.00000000       0.00000000       0.00000000      -0.44066697      -0.45479107       0.52677679      -7.68154335
Ti       5.37555981       1.12339199      12.84546757  F       0.00000000       0.00000000       0.00000000       0.21235397      -0.44468701      -0.73578852      -8.38349915
Ti       7.56454706       1.12339199      10.63379574  F       0.00000000       0.00000000       0.00000000      -0.85832518      -1.23005867       1.16538751      -7.30867672
Ti       4.09865046      13.06460476      11.58165550  F       0.00000000       0.00000000       0.00000000      -0.00851543       0.47139388      -0.66934824      -8.38682938
Ti      -1.92106426      13.06460476      10.00189018  F       0.00000000       0.00000000       0.00000000       0.29901129       0.44715050       1.42823350      -6.50121260
Ti       1.08879316      13.06460476      10.79177284  F       0.00000000       0.00000000       0.00000000       0.80352676       0.89117956       0.19311205      -7.40421391
Ti       4.92650283       8.22111653      14.48536783  T       0.41216673      -0.13407599      -0.33596549       0.03808995       0.02422306      -0.00890919      -8.22324944
Ti      -0.26115208       8.20047414      15.92364089  T      -0.60849127      -1.29416976       0.83318905       0.02765300       0.05034193      -0.01829627      -8.17203903
Ti       1.92535442       8.20639070      13.68902099  T       0.37972430      -0.49082515      -0.87366799      -0.02095542       0.01705749      -0.01677786      -8.25203323
Ti       3.19088506       5.97287393      14.98824581  T      -0.65710223       0.23716962       0.93898938       0.00314857       0.00413668       0.00620870      -8.21022606
Ti       6.19057110       5.98401027      15.77586830  T      -0.40084994       0.85443437       0.15243895      -0.02205192      -0.01296285       0.00737315      -8.21371460
Ti       0.15832903       5.96060297      14.17835617  T       0.07163984      -0.02564458      -0.21739704       0.01624306       0.01398015      -0.00789301      -8.25469112
Ti       3.19119783       1.11428921      14.98663172  T       0.21708697      -1.17955990      -0.10747125       0.00305143       0.00725251      -0.00509375      -8.19616413
Ti       6.18814671       1.10594507      15.79350046  T      -0.18932536      -1.26362880      -0.17088313      -0.04785980       0.00339785      -0.00151123      -8.11534691
Ti       0.15239883       1.11966112      14.17591646  T       0.25127888      -0.33813265      -0.62429026       0.01529826      -0.01622124       0.00760829      -8.27072144
Ti       4.92544957      13.07698962      14.53892331  T      -0.40140376       0.75876729       0.77419056       0.00164978      -0.02411729       0.00070485      -8.16860962
Ti      -1.10019410      13.06460476      13.00344467  F       0.00000000       0.00000000       0.00000000      -0.01392660       0.17651209      -0.89212394      -8.27727318
Ti       1.89816090      13.06652755      13.69824890  T       0.05626749      -0.15714742      -0.50982371       0.02780128      -0.00214425       0.00920558      -8.24480534
Ti       5.81010715       8.22407063      17.28954962  T      -0.00565377       0.31473473      -1.46407510      -0.00536700      -0.00364803       0.01167913      -7.60310745
Ti       0.68845242       8.13158285      18.67672879  T       1.91183579      -0.83723334      -1.89074338       0.03734260      -0.00052974       0.02141389      -7.59421062
Ti       2.71135156       8.27522814      16.58658749  T      -0.54148987      -0.48336870      -0.32471698      -0.01241297       0.01508382       0.01980633      -8.40930271
Ti       3.96162577       6.09398184      17.83641011  T      -0.59943096       0.74350334      -1.11283997       0.00103875      -0.02876730       0.01404868      -7.54508305
Ti      -1.27656625       5.90829777      19.24580150  T      -0.99212031       0.07458047      -1.67273960      -0.02162862       0.01583046       0.03502166      -7.73192310
Ti       0.97225410       5.92063378      17.09254038  T      -0.47570572       1.44174288       0.29708151       0.02644183      -0.00199386       0.00549097      -8.45035839
Ti       3.93919760       0.99466726      17.92526947  T      -0.90163837      -3.21428620       0.58536853       0.01333111      -0.00831103      -0.02435820      -8.32104683
Ti       6.92103350       1.14186988      18.60877659  T      -0.96087372      -1.63751946      -0.77022823      -0.01627401      -0.02105556       0.00557175      -7.73064137
Ti       0.95766550       1.19239562      17.12925716  T      -0.22962735      -0.47505185       1.13757524       0.00763284       0.02141885      -0.03104415      -8.39155293
Ti      -2.33376533      13.10612457      17.89642563  T       1.78373252       3.06264173      -2.56069798       0.00171409       0.01712861      -0.00730801      -7.51927233
Ti      -0.30951472      13.04711950      15.82692751  T       0.22015469       0.03553868       0.72485170       0.00120077      -0.04156477       0.01740211      -8.37309742
Ti       2.76842670      13.04534532      16.61107979  T       0.17297609      -0.17808105      -0.21783941      -0.00879979      -0.00349320       0.01465638      -8.41240311
O       -0.65110209       5.72842786      21.01629575  T      -2.40305452       3.17568559       1.80522276      -0.06418599      -0.01756561      -0.05505404      -5.86721134
N       -0.73922461       4.37978406      20.74629392  T      -0.59903215       0.62027670       7.84408865      -0.03016534       0.04981649       0.00877535      -7.61976433
H       -0.78874107       3.91385005      21.65236787  T      -0.16184560      -0.10882840       0.21653209      -0.08090787      -0.03989783       0.01744822      -3.35454726
