75
Lattice="8.208702087402344 0.0 -0.6319061517715454 -3.009857416152954 14.187996864318848 -0.7898827195167542 0.0 0.0 30.647449493408203" Properties=species:S:1:pos:R:3:move_mask:L:1:momenta:R:3:forces:R:3:energies:R:1 adsorbate_info="_JSON {\"site\": {\"coordinates\": [-0.3249277499999998, 7.0939981949999975, 19.243517875000006], \"connectivity\": 2, \"topology\": [61, 64], \"n_vector\": [0.3129047674712953, -0.08216555977252712, 0.9462237723081163], \"h_vector\": [-0.602395573061466, -0.7810115664154066, 0.16474376067487587], \"site_formula\": {\"Ti\": 2}}, \"smiles\": \"S1S\", \"mdf\": 0.36780750460140704, \"adsorbate_formula\": \"HNO\"}" bond_change_count=0 energy=-554.0899658203125 stress="0.0004120386438444257 6.439956337089825e-07 -2.776871588139329e-05 6.439956337089825e-07 0.0002056687808362767 -9.507133995612094e-07 -2.776871588139329e-05 -9.507133995612094e-07 0.00020630772633012384" free_energy=-554.0899658203125 pbc="T T F"
In       4.09865046       3.54699922      11.58165550  F       0.00000000       0.00000000       0.00000000      -0.00404318      -0.03302774      -0.37368831      -2.30561686
In       7.10850811       3.54699922      12.37153816  F       0.00000000       0.00000000       0.00000000      -0.38484171      -0.00907003      -0.08472036      -3.17617416
In       1.08879316       3.54699922      10.79177284  F       0.00000000       0.00000000       0.00000000       0.11797651      -0.01529756      -0.73535889      -2.18758559
In       2.36570239      10.64099789      12.05558491  F       0.00000000       0.00000000       0.00000000      -0.00155165       0.06602861      -0.42443478      -3.13091445
In       4.55468941      10.64099789       9.84391308  F       0.00000000       0.00000000       0.00000000      -0.33531252       0.03816294      -1.00639176      -2.05194235
In      -0.64415509      10.64099789      11.26570225  F       0.00000000       0.00000000       0.00000000       0.28892589       0.02662665      -0.51802194      -2.70280790
In       4.88460994       3.54634109      14.77196946  T      -0.29350466      -2.27314704       0.50131036      -0.00400065      -0.00903385      -0.02233923      -3.22076344
In      -0.42678382       3.54987616      16.15663165  T       0.07967848       0.92827760      -2.24590756      -0.00888949       0.00263943       0.00167356      -3.19179130
In       1.85824191       3.54550423      14.08130853  T       0.30214655      -0.42597490       2.04502632       0.01518753       0.00983879       0.01244691      -3.17941689
In       3.19534156      10.62999025      15.02974104  T      -0.28342207      -0.18421399      -0.26193484       0.00285246       0.03046780      -0.01220734      -3.15467405
In       5.37555981      10.64099789      12.84546757  F       0.00000000       0.00000000       0.00000000       0.14030507       0.13204312       0.19437374      -3.18008280
In       0.19761998      10.62172946      14.28963454  T       2.36377369      -0.99526542       1.88183803      -0.00620967       0.00789502      -0.01400875      -3.17179060
In       5.53480048       3.61205062      18.02377087  T       0.88795009      -0.15325396       0.55306391      -0.00917408       0.01363695       0.00064079      -2.92926812
In       0.58446096       3.72639173      19.48682434  T      -0.04773116      -0.03240125       0.71695295      -0.01953530      -0.01769114      -0.00522828      -2.35696721
In       2.67615071       3.54125204      17.12233453  T       0.37579734       1.37481900      -0.07575302      -0.02250572       0.00665566       0.00307985      -3.06754613
In       4.22267523      10.55273016      18.42938225  T       0.00128774      -2.10607675       2.52425753       0.02084593      -0.01002838      -0.02958255      -2.22731543
In      -1.98496467      10.66116229      16.49632961  T       0.85986525       0.59423346      -0.30270646       0.02153221      -0.01096385      -0.01225661      -3.15015030
In       0.99422618      10.69572217      17.59520370  T      -0.76076147       0.72658253       1.39462651       0.01933059      -0.00002999      -0.01980466      -2.49025774
N        3.64846573      -0.00118495      13.25703920  T       0.24430730      -0.12802550      -0.50016706      -0.00959145      -0.01229841       0.00406053     -11.82788086
N        5.83159876       0.00000000      11.10772610  F       0.00000000       0.00000000       0.00000000       0.48616248       0.04357773       1.47315431      -9.56907368
N        0.63275415       0.00000000      12.52951431  F       0.00000000       0.00000000       0.00000000      -0.22627640      -0.21213140      -0.88076913     -11.83414650
N        2.82174134       7.09399843      10.31784344  F       0.00000000       0.00000000       0.00000000      -1.47553945       1.56710434       3.78776526      -8.03196716
N        5.83159876       7.09399843      11.10772610  F       0.00000000       0.00000000       0.00000000       0.73289436       0.00451183       1.72696531      -9.42914391
N        0.63275415       7.09399843      12.52951431  F       0.00000000       0.00000000       0.00000000      -0.34275049      -0.09977949      -1.04354382     -11.76646614
N        4.44495298      -0.05695582      16.22885976  T       0.03803352      -0.35311906       0.24794163      -0.01102873       0.03667418       0.02951813     -11.56612587
N        6.64823543      -0.00122102      14.07084940  T      -0.15211504      -0.09409842      -0.08125825      -0.00921006       0.00639864       0.00397610     -11.67664433
N        1.43092123       0.02332085      15.45255057  T       0.25646001       0.06629364       0.00422603      -0.01473136      -0.00964624      -0.01321945     -11.60726452
N        3.65643797       7.07879408      13.26350628  T      -0.12336752      -0.08662806      -0.25353028      -0.02178448       0.00952552       0.00486524     -11.68442345
N        6.65419943       7.09470216      14.06365179  T       0.08104631      -0.06328401      -0.16555252       0.01438817      -0.00476845      -0.00500030     -11.67963696
N        1.44858878       7.09746884      15.42866056  T       0.07438553       0.00523550      -0.04886592      -0.02223448       0.00151219      -0.01819611     -11.55382633
N        5.36491508       0.13725944      18.88712155  T       1.33220429       1.97776997      -3.45586714       0.01312857      -0.01156835       0.01732123      -8.78419495
N        7.48306586       0.01661912      17.04345497  T       0.25601018       0.16751689       0.57837535       0.00169571      -0.03530080       0.00412685     -11.71396065
N        2.21977587       0.03677540      18.22660900  T      -0.46117453       0.14813848      -1.70810574       0.00885437       0.01354905       0.02573822      -9.90889359
N        4.44720087       7.15688076      16.21120100  T      -0.12953556       0.08920334       0.39461718      -0.03895697       0.00075527      -0.03087331     -11.83988380
N       -0.69231312       7.12671312      17.62829604  T       0.05116013       0.61056134      -0.16496707       0.05644008       0.02195563      -0.06567998     -11.67805195
N        2.26081729       7.08458688      18.22205291  T      -0.63465834       0.26870650      -2.16971946      -0.02913503       0.01184812      -0.00482835      -9.96163177
Ti       4.09865046       8.21739006      11.58165550  F       0.00000000       0.00000000       0.00000000      -0.14171292      -2.32025814      -1.58876085      -8.49904442
Ti      -1.10019410       8.21739006      13.00344467  F       0.00000000       0.00000000       0.00000000      -0.17964250      -0.46119606      -0.70138752      -8.39702892
Ti       1.08879316       8.21739006      10.79177284  F       0.00000000       0.00000000       0.00000000       1.98547542      -1.38661218       0.25544545      -7.36666441
Ti       2.36570239       5.97060633      12.05558491  F       0.00000000       0.00000000       0.00000000       0.13216351       1.17645907      -1.39072585      -8.40902138
Ti       5.37555981       5.97060633      12.84546757  F       0.00000000       0.00000000       0.00000000       0.25561416       0.44719017      -0.80312622      -8.38286400
Ti      -0.64415509       5.97060633      11.26570225  F       0.00000000       0.00000000       0.00000000      -0.92048442       1.19433773       1.25280273      -7.28553391
Ti       2.36570239       1.12339199      12.05558491  F       0.00000000       0.00000000       0.00000000      -0.43279791      -0.46682680       0.53233331      -7.67806149
Ti       5.37555981       1.12339199      12.84546757  F       0.00000000       0.00000000       0.00000000       0.21582419      -0.45885044      -0.71901983      -8.38167286
Ti       7.56454706       1.12339199      10.63379574  F       0.00000000       0.00000000       0.00000000      -0.85483295      -1.22939777       1.16476429      -7.30595016
Ti       4.09865046      13.06460476      11.58165550  F       0.00000000       0.00000000       0.00000000      -0.00486605       0.46493596      -0.68287516      -8.38448715
Ti      -1.92106426      13.06460476      10.00189018  F       0.00000000       0.00000000       0.00000000       0.29718593       0.45363244       1.43088138      -6.49853611
Ti       1.08879316      13.06460476      10.79177284  F       0.00000000       0.00000000       0.00000000       0.80366153       0.88629204       0.18784608      -7.40208244
Ti       4.92777359       8.22959896      14.49021916  T       0.43044736      -0.13976784      -0.33661537      -0.01109957      -0.01491302       0.04125104      -8.21338558
Ti      -0.27014664       8.21680602      15.92211985  T      -0.66856393      -1.24369062       0.38758508       0.00128186      -0.02007684       0.02167301      -8.20240593
Ti       1.92051487       8.20813762      13.69579507  T       0.37846375      -0.49190500      -0.88776227      -0.00662895      -0.00878163      -0.02387446      -8.24415112
Ti       3.19391460       5.99134330      14.99876305  T      -0.61788604       0.28188628       0.94099110      -0.00202045      -0.01746394       0.05872766      -8.18786621
Ti       6.18228231       5.99075714      15.78261603  T      -0.58382835       0.65990754      -0.08379328      -0.00546969       0.02212927       0.00355347      -8.20644093
Ti       0.15880116       5.97076853      14.19027143  T       0.06266078       0.00126964      -0.23389990       0.00025968       0.01103541       0.00076272      -8.24148941
Ti       3.19690699       1.10446538      14.98511652  T       0.24309038      -1.18699876      -0.13438308      -0.01560345       0.00603783       0.01957660      -8.18209839
Ti       6.17005401       1.10502654      15.78817560  T      -0.21508047      -1.23038029      -0.16967938      -0.01681308      -0.02618209       0.01841675      -8.12116432
Ti       0.15378851       1.11793839      14.17531981  T       0.24293836      -0.35206403      -0.67128852       0.00259650      -0.02066496       0.02270626      -8.25893593
Ti       4.91436875      13.06909092      14.53825020  T      -0.42164514       0.71684415       0.75458681       0.00590599       0.02336609       0.03140134      -8.16914749
Ti      -1.10019410      13.06460476      13.00344467  F       0.00000000       0.00000000       0.00000000       0.00180007       0.10999562      -0.92062843      -8.27977180
Ti       1.90048270      13.05651396      13.69776927  T       0.05526473      -0.16343536      -0.51684676      -0.00040770       0.01532371       0.00072204      -8.24341297
Ti       5.79333810       8.25682274      17.30682759  T      -0.12514324       0.08874288      -1.89358819      -0.00742269       0.00613618      -0.05169007      -7.53236008
Ti       0.68863696       8.05405922      18.84650099  T       3.56836960       0.74797888      -4.41606279       0.03004815       0.04753815      -0.06042773      -8.07442093
Ti       2.70242128       8.27080662      16.63062293  T      -0.37510098      -0.52683885      -0.50311878       0.01651195       0.00126509      -0.00748025      -8.41735840
Ti       3.96373950       6.08434082      17.83854200  T      -0.85275095       0.72489094      -1.24713221      -0.03159000      -0.01171213       0.02227060      -7.48488855
Ti      -1.26938822       6.05037030      19.30544730  T      -0.38053681       0.93475108      -1.07621891      -0.04430908      -0.05158871       0.01874179      -8.21761703
Ti       0.96398271       5.94775027      17.11210582  T      -0.35972615       1.73436830       0.17640919      -0.01011355       0.03252811       0.01777757      -8.39997101
Ti       3.94391817       0.99909289      17.91306569  T      -0.88825441      -3.16001093       0.59425152      -0.05000028       0.01320197      -0.01978651      -8.31920719
Ti       6.90358949       1.12757548      18.59894229  T      -1.16195272      -1.72092648      -0.53623214       0.00975432       0.04607716      -0.00584736      -7.69767284
Ti       0.95289647       1.17697992      17.09760941  T      -0.00466733      -1.19254369       0.66701493       0.00472848      -0.00368097      -0.01580444      -8.35858345
Ti      -2.35335621      13.13645665      17.91678062  T       1.77445949       3.04471668      -2.53485077       0.00327120      -0.00834866      -0.01792684      -7.49932480
Ti      -0.32260594      13.03199696      15.84961291  T       0.23836260       0.01161153       0.74141027       0.04023514       0.02720186      -0.02873138      -8.36840248
Ti       2.75431128      13.02139219      16.62494815  T       0.17102436      -0.21526680      -0.22285932       0.01407040      -0.01969450      -0.02720876      -8.43376350
O       -0.88762341       6.53805787      21.07288129  T      -1.17108585      -1.49255822       1.07758683      -0.05877161      -0.03887650       0.02820396      -5.65547323
N        0.09782140       7.31302030      20.47158836  T      -0.57362122      -0.01589598       3.54365465       0.03125915       0.00644433      -0.02981347      -8.71086693
H        0.66187698       7.68825448      21.24304131  T      -0.05168425      -0.69750418      -0.26124816      -0.00027816       0.01322472      -0.00429532      -3.39038730
