75
Lattice="8.208702087402344 0.0 -0.6319061517715454 -3.009857416152954 14.187996864318848 -0.7898827195167542 0.0 0.0 30.647449493408203" Properties=species:S:1:pos:R:3:move_mask:L:1:momenta:R:3:forces:R:3:energies:R:1 adsorbate_info="_JSON {\"site\": {\"coordinates\": [6.15082598, 0.561695995, 19.08554077], \"connectivity\": 2, \"topology\": [30, 67], \"n_vector\": [0.25143243625879846, 0.5180013622504114, 0.8175917799878393], \"h_vector\": [0.8178535159808911, 0.5301774374032224, -0.2236683063517188], \"site_formula\": {\"N\": 1, \"Ti\": 1}}, \"smiles\": \"S1S\", \"mdf\": 0.6090486502428664, \"adsorbate_formula\": \"HNO\"}" bond_change_count=0 energy=-552.1449584960938 stress="0.0004198445240035653 -2.3935788703965954e-05 -1.5779036402818747e-05 -2.3935788703965954e-05 0.00020689608936663717 -8.653293662064243e-06 -1.5779036402818747e-05 -8.653293662064243e-06 0.00019845255883410573" free_energy=-552.1449584960938 pbc="T T F"
In       4.09865046       3.54699922      11.58165550  F       0.00000000       0.00000000       0.00000000      -0.03277091      -0.03208662      -0.41273868      -2.30030084
In       7.10850811       3.54699922      12.37153816  F       0.00000000       0.00000000       0.00000000      -0.34120381      -0.04200892      -0.04801910      -3.18476057
In       1.08879316       3.54699922      10.79177284  F       0.00000000       0.00000000       0.00000000       0.12497129      -0.01409769      -0.66524822      -2.20833206
In       2.36570239      10.64099789      12.05558491  F       0.00000000       0.00000000       0.00000000      -0.01852769       0.05400182      -0.48159724      -3.12870026
In       4.55468941      10.64099789       9.84391308  F       0.00000000       0.00000000       0.00000000      -0.33631960       0.03966751      -1.00055695      -2.05285883
In      -0.64415509      10.64099789      11.26570225  F       0.00000000       0.00000000       0.00000000       0.29011488       0.03297742      -0.53549337      -2.69990420
In       4.88297922       3.53445853      14.73930922  T       0.36540174      -0.03976437       0.60368277      -0.01556238       0.02526414       0.00365327      -3.22056484
In      -0.41553720       3.53864045      16.19713141  T      -0.96710359       0.12682669      -3.06226686      -0.01103151       0.01187097      -0.02147555      -3.19926786
In       1.86605841       3.53689216      14.12650586  T       0.88883730       0.40495271      -0.33824933      -0.01748868       0.00428371      -0.00272056      -3.18867898
In       3.21194700      10.61310152      15.00099837  T       0.90724937       0.52249715      -0.61594206       0.00630239       0.03058678       0.00420995      -3.14206028
In       5.37555981      10.64099789      12.84546757  F       0.00000000       0.00000000       0.00000000       0.18720670       0.05934164       0.16275907      -3.18653202
In       0.18616964      10.60885513      14.28651772  T      -0.00843350       0.43733100      -0.63313532       0.00803781       0.00635442       0.00241502      -3.16314626
In       5.52160461       3.46932685      17.82703723  T      -3.15981975      -2.53274683       1.23892160      -0.02023869      -0.00331500      -0.01365063      -3.10470486
In       0.49221336       3.32099365      19.59808393  T      -0.20027600      -1.75560622       1.36200952      -0.01354801      -0.00657590      -0.01339824      -2.43973470
In       2.65402223       3.50103124      17.24967774  T       0.65079648       1.46328534      -0.18933879      -0.00405311      -0.00620846      -0.00662959      -3.07084966
In       4.23632217      10.51917669      18.40947759  T       0.57494790       1.90310331       2.73936155      -0.01068545      -0.03069674       0.02564205      -2.23928976
In      -1.95541583      10.63785299      16.53046402  T      -0.01478529       0.09343440       0.10966394      -0.01553411      -0.02149667       0.01427783      -3.13822889
In       1.05594599      10.70620251      17.53797326  T       0.56583204      -0.22442747       1.31431639      -0.01992545       0.00964344      -0.01427005      -2.47105241
N        3.65001628      -0.00188816      13.26113660  T       0.05195666      -0.12899663      -0.17250817      -0.01446329      -0.00185901      -0.01192202     -11.83012581
N        5.83159876       0.00000000      11.10772610  F       0.00000000       0.00000000       0.00000000       0.48239046       0.04961380       1.46883106      -9.57449341
N        0.63275415       0.00000000      12.52951431  F       0.00000000       0.00000000       0.00000000      -0.21940759      -0.19590701      -0.87516075     -11.84433365
N        2.82174134       7.09399843      10.31784344  F       0.00000000       0.00000000       0.00000000      -1.47292352       1.56456041       3.78463054      -8.03092670
N        5.83159876       7.09399843      11.10772610  F       0.00000000       0.00000000       0.00000000       0.73770934       0.00935613       1.73258126      -9.42695522
N        0.63275415       7.09399843      12.52951431  F       0.00000000       0.00000000       0.00000000      -0.33712801      -0.09287720      -1.07019520     -11.76264000
N        4.46022328      -0.08796201      16.22810811  T      -0.48183965      -0.07166591       0.32416321      -0.03118760       0.00614023      -0.01425363     -11.56262779
N        6.65388705      -0.00640430      14.08144105  T       0.01824548       0.01617082      -0.18581871      -0.01053670       0.01337335       0.01367129     -11.64206123
N        1.44756322       0.02490342      15.46982592  T      -0.23376510      -0.17480014       0.09839333      -0.02367599      -0.01824337      -0.01915306     -11.57643509
N        3.65670285       7.08079803      13.26105032  T       0.07110200       0.05513016      -0.21681300       0.01885670      -0.00459301      -0.02859523     -11.67269135
N        6.66093714       7.08739253      14.06069662  T       0.19131393      -0.18134339      -0.16793904       0.02479197      -0.00206520      -0.00331625     -11.66646576
N        1.46518422       7.08768796      15.40620334  T      -0.13684173      -0.12149227      -0.28893924      -0.01016314       0.01236301       0.00747548     -11.54206657
N        5.32990863      -0.20636493      18.98773968  T      -0.86689679       0.31406496      -0.99278019      -0.01975775       0.08451492       0.03219362      -7.96101713
N        7.54296692      -0.04536665      16.99596465  T       0.10207996       0.09185571       0.50326930      -0.05889697       0.04308520       0.01811031     -11.61955070
N        2.22315425       0.01335482      18.25821205  T      -0.60316430      -0.07804483      -1.68504949      -0.01327179       0.00072732      -0.03114530      -9.82824993
N        4.44984831       7.13484510      16.18246898  T      -0.08340063       0.20060303      -0.11905013       0.02861612      -0.01562520       0.02062535     -11.86077499
N       -0.64819369       7.05584677      17.63198927  T       0.11100754       0.05085905       0.56118099       0.01428464      -0.00769843      -0.01539028     -12.00974274
N        2.27387475       7.03403965      18.17273858  T      -0.55662906       0.04378100      -1.75492547      -0.02692023       0.03062008       0.00566389     -10.00135994
Ti       4.09865046       8.21739006      11.58165550  F       0.00000000       0.00000000       0.00000000      -0.12990403      -2.30175352      -1.60938716      -8.50295639
Ti      -1.10019410       8.21739006      13.00344467  F       0.00000000       0.00000000       0.00000000      -0.18699837      -0.51471204      -0.67185473      -8.39548397
Ti       1.08879316       8.21739006      10.79177284  F       0.00000000       0.00000000       0.00000000       1.98412871      -1.37453449       0.24809510      -7.37112522
Ti       2.36570239       5.97060633      12.05558491  F       0.00000000       0.00000000       0.00000000       0.12583321       1.16450477      -1.43031454      -8.40611458
Ti       5.37555981       5.97060633      12.84546757  F       0.00000000       0.00000000       0.00000000       0.29421598       0.45151538      -0.82919669      -8.37709236
Ti      -0.64415509       5.97060633      11.26570225  F       0.00000000       0.00000000       0.00000000      -0.92557549       1.18217468       1.24458551      -7.28719807
Ti       2.36570239       1.12339199      12.05558491  F       0.00000000       0.00000000       0.00000000      -0.42654476      -0.49112681       0.55073130      -7.67362785
Ti       5.37555981       1.12339199      12.84546757  F       0.00000000       0.00000000       0.00000000       0.27068073      -0.50249761      -0.67433929      -8.37240791
Ti       7.56454706       1.12339199      10.63379574  F       0.00000000       0.00000000       0.00000000      -0.83983505      -1.23480034       1.18008208      -7.29867268
Ti       4.09865046      13.06460476      11.58165550  F       0.00000000       0.00000000       0.00000000       0.01120330       0.47398001      -0.69206971      -8.38021564
Ti      -1.92106426      13.06460476      10.00189018  F       0.00000000       0.00000000       0.00000000       0.29679358       0.46249458       1.43199682      -6.49941635
Ti       1.08879316      13.06460476      10.79177284  F       0.00000000       0.00000000       0.00000000       0.80333149       0.88971770       0.17462736      -7.40601158
Ti       4.93547813       8.22181515      14.49265015  T       0.04155370       0.01185828       0.86836167       0.02569124      -0.01312906      -0.00726948      -8.23915863
Ti      -0.25191721       8.18614966      15.95470426  T       0.68128274      -2.31108233       0.59883646      -0.00351810       0.00231290       0.00601867      -8.17533112
Ti       1.92489024       8.21128437      13.68737930  T       0.67045353       0.60418055      -0.67848704      -0.01798802      -0.04246153      -0.01109795      -8.25590420
Ti       3.20307315       5.97599645      14.98121993  T       0.04068179       0.97622605       0.41413978       0.01275823       0.00568095      -0.00522690      -8.19094849
Ti       6.18448193       5.97293933      15.78663795  T       0.61568750      -0.10454983       1.04402833      -0.01297174       0.00759380      -0.00219194      -8.12539291
Ti       0.16197336       5.96368383      14.17958754  T       0.71462190      -0.67889392      -1.44739892       0.00286296       0.00949433      -0.01788309      -8.24250507
Ti       3.21054799       1.09473298      14.99349247  T      -0.43688487      -0.72509841      -0.59396487      -0.04455360      -0.00085304      -0.00861196      -8.21230507
Ti       6.16711223       1.07367350      15.81934912  T      -0.11396862      -0.34228938      -0.05185448      -0.00411241       0.02297958      -0.03067099      -8.27673244
Ti       0.15978025       1.10983007      14.18260528  T       0.08018896       0.42171060      -1.06384133       0.01986481       0.01912710       0.00916222      -8.25221252
Ti       4.94782937      13.04447177      14.50543695  T      -0.97988187      -0.17147854       0.26927959      -0.00513570       0.02813651       0.01196304      -8.20717430
Ti      -1.10019410      13.06460476      13.00344467  F       0.00000000       0.00000000       0.00000000       0.02326654       0.12062144      -0.89463145      -8.26390648
Ti       1.90663640      13.04947873      13.68221191  T      -0.44804492      -0.75523671       0.43363604      -0.01580166      -0.01316907      -0.02200942      -8.24683762
Ti       5.81646122       8.18477656      17.32019133  T       0.44053713      -0.80940328      -2.21804333      -0.03109450       0.01030940      -0.00522109      -7.50215244
Ti       0.73006451       8.06950455      18.67897935  T       2.02198481      -1.24369519      -2.35711214       0.00922342       0.00114170       0.02693862      -7.41879559
Ti       2.72548637       8.25020960      16.60948144  T      -0.97222372      -0.58508326       0.12568497      -0.01480382       0.02042210       0.00090768      -8.41370106
Ti       4.00699836       6.02751867      17.80215382  T      -1.56642665       2.44098691      -1.96614105       0.01457061      -0.00468987      -0.02307338      -7.40849733
Ti      -1.31801059       5.89033540      19.08997221  T       0.01962259       0.80848880      -2.79008474      -0.00211132       0.01156390       0.01094673      -6.67563820
Ti       1.00198592       5.91497192      17.06498988  T       0.67425850       0.73790954       1.52613903      -0.01347581       0.00179876       0.00202730      -8.31785679
Ti       3.99365497       0.97584950      17.98619589  T      -1.51538543      -2.10730967       0.73972411       0.00987199      -0.00839317       0.03898007      -8.20889664
Ti       6.84551254       1.14233551      18.59950608  T      -1.68995334      -1.20381921       2.17849032       0.03420722      -0.03447603      -0.02679658      -8.73673248
Ti       0.97299844       1.16909815      17.13115428  T      -0.04949279      -1.11350476      -0.28973196      -0.00486883      -0.02276639       0.03056866      -8.50976944
Ti      -2.34032759      13.15331022      17.97181809  T       2.09129413       1.43319803      -1.74946544      -0.05865525       0.01320717      -0.02566326      -7.69214153
Ti      -0.30685378      13.02375705      15.85786997  T       0.09293334       0.18686080      -0.32865453      -0.04293513       0.03361727       0.01819520      -8.42652512
Ti       2.78602415      12.99110189      16.62630644  T       0.21165881       0.49848619      -0.72635190       0.00361162       0.00527322      -0.00453433      -8.43672180
O        5.99524476       1.50607399      20.29125587  T      -0.16797939       1.17615240      -0.92735608      -0.00492578       0.02256197       0.03892064      -4.68392277
N        4.94644364       0.79437325      19.83689897  T       0.83777561       0.77398892      -2.34870843       0.00849713      -0.01530915      -0.06159478      -9.26875019
H        4.45032276       0.50269864      20.68432972  T      -0.09398383      -0.22653015      -0.55865554       0.00713655       0.02145036       0.01708145      -3.23442602
