75
Lattice="15.477487564086914 0.0 0.5151416063308716 3.713155508041382 10.794244766235352 0.5151416063308716 0.0 0.0 29.30695915222168" Properties=species:S:1:pos:R:3:move_mask:L:1:momenta:R:3:forces:R:3:energies:R:1 adsorbate_info="_JSON {\"site\": {\"coordinates\": [7.87498379, 9.59725761, 16.79029655], \"connectivity\": 1, \"topology\": [22], \"n_vector\": [0.243807763828771, -0.18102508588306218, 0.9527789316404116], \"h_vector\": [1.0, 0.0, 0.0], \"site_formula\": {\"Ti\": 1}}, \"smiles\": \"Cl\", \"mdf\": 1.7234870516637404, \"adsorbate_formula\": \"C2H6N2O\"}" bond_change_count=0 energy=-490.6626892089844 stress="0.007949501276016235 0.0008307567914016545 0.0004279879794921726 0.0008307567914016545 0.008025944232940674 4.1148214222630486e-05 0.0004279879794921726 4.1148214222630486e-05 0.0012903589522466063" free_energy=-490.6626892089844 pbc="T T T"
Bi       9.16892836       7.47873021      14.89756716  T       2.32788893       0.17615171      -2.16278484       0.03983629       0.01325841      -0.02530628      -6.70184231
Bi       0.82545853       0.05622002      12.69866753  F       0.00000000       0.00000000       0.00000000      -0.05292749      -0.12767056      -0.87790120      -5.47286987
Bi       2.83312194       1.01536271      18.18823857  T      -2.46247909      -0.08958251       0.34068782      -0.02924392       0.02673130      -0.03055147      -4.84559488
Bi       6.03231042       3.99590680      16.82105042  T       2.38984327       2.48335562      -1.90549059       0.04353121       0.01989651      -0.01538402      -5.77705097
Bi       2.26992524       3.35285514      14.83107553  T       0.10601264       1.85935427       0.16136622      -0.01104213       0.04061453       0.03790721      -6.61719036
Bi       5.36463547       6.69018269      13.39567089  F       0.00000000       0.00000000       0.00000000      -0.04006061       0.20312314      -1.06580937      -5.92295074
Bi       8.45968246      10.06338406      11.78936005  F       0.00000000       0.00000000       0.00000000       0.05380504      -0.02859142      -0.34262866      -4.90487099
Bi      10.43788562      10.68164544      17.52991467  T       0.77556929      -0.83525661      -2.96903368      -0.02928165      -0.00783319      -0.02329949      -5.42151260
Ti       8.75523330       5.17257945      16.87958464  T       0.77464689      -1.41666193       1.18211382       0.00100327      -0.00723761       0.00556582      -8.33138371
Ti       4.22341529       8.68049428      15.38926464  T       0.68771247       0.08805264       0.25493949       0.00356288      -0.03600444      -0.01640536      -7.60266018
Ti       3.56686091       1.26976061      13.20247269  F       0.00000000       0.00000000       0.00000000       0.32666078      -0.04998455       0.11417580      -7.06631041
Ti       6.66190815       4.64296198      11.59616184  F       0.00000000       0.00000000       0.00000000       0.39058161      -0.35994390       0.90718830      -6.17880201
Ti       7.62293537       4.91318393      14.14591049  T      -0.20227364       0.32961752      -0.69394138       0.00387750      -0.00260413       0.02268529      -7.42402077
Ti       3.04546547       8.33600903      12.38326454  F       0.00000000       0.00000000       0.00000000      -0.26028663       0.05347055       0.86835581      -6.36057997
Ti       5.43912890       8.79814787      17.95826918  T       0.25047819      -1.30868464      -1.07596693      -0.04429477       0.03883171      -0.00916106      -7.58434772
Ti       4.58150764       1.55553841      15.77902646  T       2.01153891      -0.43964155      -0.38360325      -0.02872036      -0.05766192       0.03571096      -7.50367451
Ti       6.57964699       7.00707119      16.24165533  T       1.98178305       0.79327683       1.50347490       0.00400180       0.01124657      -0.02303934      -8.54491615
Ti       9.48351426      10.45723666      14.60085809  T      -0.34714389      -0.02905818      -1.36409978      -0.01114470      -0.01992507       0.01724034      -7.55907822
Ti       1.12472832       3.04373622      12.22225189  F       0.00000000       0.00000000       0.00000000      -0.58587432       0.42153680      -0.07243364      -6.34204483
Ti       3.18379640       3.86661709      17.52857082  T       1.47334142       0.59972585      -0.82006268       0.02186860       0.07092683       0.02658978      -6.53492737
Ti       2.62323332       5.47664213      12.89186573  F       0.00000000       0.00000000       0.00000000      -0.39081764       0.16201615      -0.16663921      -6.26791096
Ti       4.60720032       6.13278229      18.27483284  T      -1.24163818       0.59752145      -0.15133643       0.06205013       0.01380531      -0.00685918      -6.85757160
Ti       7.74236844       9.61330209      16.75805707  T       0.71764275       0.09124007       1.35928478       0.06207007       0.00342655      -0.00095779      -7.67362309
Ti       7.19618775       2.11187764      14.68448123  T      -0.87200949      -0.29387837      -0.50496582      -0.02981153      -0.01538821       0.00713578      -7.36047411
Ti       3.84978612       5.86725365      15.77522810  T       0.46176281       0.74217756      -0.72148307      -0.01846364      -0.00994806       0.02374458      -7.42862988
Ti       6.83178492       9.19608714      14.22515886  T      -0.48056045      -0.84733706      -1.08774300      -0.01051623       0.04693907      -0.01034825      -7.61770344
Ti       6.23967600       1.78359568      12.10476303  F       0.00000000       0.00000000       0.00000000       0.05694594       0.54686660       0.71366441      -6.82046604
Ti       8.34144248       2.31663876      17.28634817  T      -0.73304977      -0.74838818      -0.11796157      -0.05543886       0.00830881      -0.01240817      -6.86194134
Ti       5.06536579       3.70266676      13.87208557  F       0.00000000       0.00000000       0.00000000       0.24216589      -0.34205508      -0.42229444      -7.06225967
Ti       8.16041279       7.07586813      12.26577568  F       0.00000000       0.00000000       0.00000000       0.18309447      -0.53883535       0.33637658      -6.34618473
Ti       9.69054748       7.75495237      17.73382272  T      -3.65528739       0.27772637       0.12911555       0.00114536       0.02124012      -0.00991460      -8.36630535
Ti       1.82754866       0.35816968      15.49040484  T       0.19282446       0.00114026      -0.09188069       0.01603800      -0.00230464       0.02538127      -7.56555367
Bi      16.88510690       7.44144519      15.24508111  T       0.80058340      -0.72366263      -1.05563398       0.00522551       0.00384927       0.00126672      -6.54476166
Bi       8.56420231       0.05622002      12.95623875  F       0.00000000       0.00000000       0.00000000      -0.09785569      -0.13063028      -1.00878131      -5.46105671
Bi      10.52854601       0.63485814      18.50576261  T      -0.46435712      -1.24986520       0.74045706       0.00537033       0.01031748       0.01876476      -4.90454435
Bi      13.80315107       4.12174781      17.12080799  T       1.24988929      -0.16959524      -0.13736679      -0.05063663       0.04783779      -0.02439862      -5.63187122
Bi      10.02023519       3.27789717      15.06670021  T      -0.45499325      -1.94084238       1.22660122       0.04851432      -0.00844938       0.04328582      -6.62504101
Bi      13.10337925       6.69018269      13.65324116  F       0.00000000       0.00000000       0.00000000      -0.07355203       0.12414229      -1.19264865      -5.84129143
Bi      16.19842720      10.06338406      12.04693127  F       0.00000000       0.00000000       0.00000000       0.06454836      -0.09268548      -0.16226603      -4.90623760
Bi      18.29561148      10.68521806      17.86196277  T       0.94730711      -0.96026533      -1.79084586      -0.03737987      -0.04334653      -0.00264487      -5.32231045
Ti      16.65747403       5.32693141      17.26528148  T       0.29986645      -0.31764938       0.32805037      -0.02380814       0.04647902      -0.04348153      -6.41179943
Ti      11.78573635       8.65125680      15.58658624  T      -0.43651855       0.42480753      -0.46781702      -0.01440227      -0.03004806       0.04621840      -7.54912758
Ti      11.30560493       1.26976061      13.46004295  F       0.00000000       0.00000000       0.00000000       0.32301933      -0.19883524      -0.00177661      -7.02902746
Ti      14.40065193       4.64296198      11.85373306  F       0.00000000       0.00000000       0.00000000       0.44500020      -0.37868348       0.83650446      -6.19979858
Ti      15.34667332       4.87225554      14.39733923  T      -1.46296085      -0.43173228      -0.43203184      -0.00530889      -0.01053712       0.06409878      -7.26002884
Ti      10.78420925       8.33600903      12.64083481  F       0.00000000       0.00000000       0.00000000      -0.11603032       0.09335461       0.62759233      -6.44177008
Ti      12.63670626       8.80573186      18.01569317  T      -1.07018314      -1.42764821       1.34662950      -0.02117786      -0.01720172       0.00819105      -6.96447325
Ti      12.28829617       1.43744184      16.06120338  T      -0.05749794      -1.62692495       0.17363546      -0.03472490      -0.00615478      -0.03215104      -7.36700916
Ti      14.02096951       7.12328218      16.50444450  T       0.14691406       1.92203976       1.44249817       0.01564029      -0.03033063       0.01423940      -7.07624054
Ti      17.23958774      10.39784225      14.90037208  T      -1.08315118      -1.36412244      -0.09191816       0.00759554       0.05188672      -0.02291778      -7.51887798
Ti       8.86347198       3.04373622      12.47982311  F       0.00000000       0.00000000       0.00000000      -0.51935089       0.41031826      -0.10725308      -6.32832146
Ti      10.94894534       3.59106607      17.71269385  T       0.85349020       0.01258598      -1.27820047       0.01807762       0.00266491       0.00968416      -6.63991308
Ti      10.36197758       5.47664213      13.14943600  F       0.00000000       0.00000000       0.00000000      -0.42822272       0.10188066      -0.17005017      -6.30568314
Ti      11.99614229       6.19492355      18.41724997  T       0.56877379      -0.76733869       2.03560856      -0.01055910       0.01248500       0.00265723      -6.66019440
Ti      15.50199607       9.45511905      17.09043832  T      -0.96116926      -1.70439086       1.69101132       0.00093281       0.02878697       0.03017518      -7.04579830
Ti      14.91394560       2.07130388      14.96500604  T      -0.24257940      -0.44128688      -0.52083513       0.02137291      -0.02291901      -0.01925945      -7.33539867
Ti      11.43368355       5.87838692      16.01395899  T      -0.06741120      -0.50708781       0.28819075      -0.00407980      -0.01816736      -0.00827190      -7.51431894
Ti      14.55038488       9.27637556      14.52390696  T      -1.18368087      -0.15436261      -0.36577794       0.04776553      -0.02280644       0.01121193      -7.38817596
Ti      13.97841930       1.78359568      12.36233425  F       0.00000000       0.00000000       0.00000000       0.13122192       0.43701911       0.60116750      -6.81970167
Ti      16.09354480       2.47431198      17.53392120  T      -0.43219966      -1.20460911      -0.29777840       0.00401552       0.01856380       0.01473895      -6.75474644
Ti      12.86212330       3.59952225      14.06083261  T       1.39504893      -1.24497183      -0.53976554       0.01074305       0.01758304       0.03486961      -7.05071497
Ti      15.89915657       7.07586813      12.52334595  F       0.00000000       0.00000000       0.00000000       0.27733326      -0.48490286       0.54085243      -6.32897139
Ti      18.08372229       7.66340000      17.94005207  T      -0.30533105      -0.95809840       0.07632522       0.03593700      -0.05765404       0.01140244      -6.55554771
Ti       9.53998388       0.27306838      15.73391004  T      -0.11494925      -1.17482267       0.32814842       0.03364030       0.03981999      -0.00213708      -7.46431732
O        7.93084041       6.77265458      17.65074604  T       1.40600569      -2.25056828       2.56902941       0.04629704       0.05720890       0.06197906      -2.88467741
N        7.45378629       7.91344616      18.11972700  T      -3.40794798       0.10258174       1.59175958       0.00837755      -0.05545914      -0.07941049      -7.62987709
N        8.14687688       8.02219710      19.24646878  T       1.82710869       0.30807713      -0.32674267      -0.02596227      -0.02610254      -0.04190767      -9.22376728
C        8.07687789       6.62968193      19.74771595  T      -0.99712496       2.03669205      -1.53081909      -0.00545490      -0.02618606      -0.05811095      -9.05436230
C        7.65425640       8.96661332      20.24290985  T      -0.63836570       0.05630970       0.20518894       0.04946759      -0.01317003      -0.00448477      -9.48971844
H        8.22278126       6.64581089      20.82446050  T      -0.33644455      -0.01078793      -0.11211491       0.02164627       0.00769173       0.03187475      -3.63489032
H        7.10963387       6.18192883      19.52732992  T      -0.11364330       0.43072173      -0.15243811      -0.02575114       0.04424143       0.00958796      -3.63783526
H        8.89148490       6.03536237      19.32781779  T      -0.08442684       0.13155223       0.14019362       0.01402363      -0.02586716       0.01084602      -4.16888571
H        7.86264911       8.52406834      21.22199528  T       0.03829222       0.11931432       0.12570568      -0.04075652       0.02436772       0.04944029      -3.51024556
H        6.54796242       9.06740488      20.14837148  T      -0.20775798       0.01347483       0.03837447      -0.02105264       0.00987543      -0.05988644      -3.72010827
H        8.18586560       9.92825871      20.18088606  T       0.22771688       0.14286178       0.06050141       0.00598720       0.01351215      -0.04919140      -3.53595090
