49
Lattice="11.863972663879395 0.0 -0.190369114279747 -2.7065036296844482 9.11697769165039 -0.3595939874649048 0.0 0.0 33.15761184692383" Properties=species:S:1:pos:R:3:move_mask:L:1:momenta:R:3:forces:R:3:energies:R:1 adsorbate_info="_JSON {\"site\": {\"coordinates\": [0.34087079806030135, 3.292241815, 21.033024067139877], \"connectivity\": 2, \"topology\": [35, 42], \"n_vector\": [-0.3242493223141953, -0.34728508089790633, 0.8799178652377275], \"h_vector\": [-0.7991563457736405, -0.5166126088764766, -0.30734434655539405], \"site_formula\": {\"Y\": 2}}, \"smiles\": \"S1S\", \"mdf\": 2.026538071553672, \"adsorbate_formula\": \"H\"}" bond_change_count=0 energy=-249.90863037109375 stress="0.00033234473085030913 2.453029082971625e-05 7.296907256204577e-07 2.453029082971625e-05 0.00029300409369170666 4.582133442454506e-06 7.296907256204577e-07 4.582133442454506e-06 8.334695303346962e-05" free_energy=-249.90863037109375 pbc="T T F"
Ga       3.26460476       2.81026001      15.24209953  T       0.71197032      -0.27886154       0.21050597      -0.00848547      -0.01073840      -0.02077612      -3.28927016
Ga      -1.10344553       6.34772587      13.41262531  F       0.00000000       0.00000000       0.00000000       0.15141653      -0.01727056      -0.33238909      -3.10764599
Ga       3.18696737       0.77623945      11.74798393  F       0.00000000       0.00000000       0.00000000       0.26330990       0.15207766       0.27253953      -2.58110189
Ga       4.78001213       1.24975562      13.82387161  F       0.00000000       0.00000000       0.00000000       0.15279454      -0.05164983      -0.46059924      -3.26739526
Ga       0.43193507       4.79524708      11.89482021  F       0.00000000       0.00000000       0.00000000      -0.10993558      -0.30983141       0.11231844      -2.55065942
Ga       0.51392788       6.84337823      15.39420213  T      -0.39199628      -0.92989663       0.28839094       0.00919913      -0.01974780      -0.00407840      -3.30367160
Ga       1.78636207       1.32257774      20.65713869  T      -0.58410474      -0.52809794       1.19740701      -0.00824829      -0.00104554       0.00092956      -2.63864231
Ga       3.20682930       4.79590027      18.71459460  T      -0.35388301       0.06675530      -0.75906775       0.03004736       0.00147771      -0.04466472      -3.25066614
Ga      -1.01768890       8.34725748      16.94485844  T      -0.67218438      -0.04638416      -0.75092823      -0.01166449      -0.00857332       0.00550864      -3.31975722
Ga       0.55175592       8.73152002      19.04521310  T      -0.18791609      -0.24155049       0.03044907       0.00570853      -0.02329765      -0.03013726      -3.09519315
Ga       4.82202464       3.26960774      17.31082889  T      -0.49379909       1.65722894       0.16153619      -0.00678419      -0.00048404       0.03473319      -3.31059504
Ga      -1.16818401       5.29675363      20.75096196  T      -1.27428474       0.74647363      -1.79325553       0.03661358      -0.02745968       0.07472938      -2.66157746
Ga       9.19834040       2.80449254      15.16235708  T       0.03961962      -1.54871298      -1.37753864      -0.00818853      -0.01082557      -0.00751736      -3.29243517
Ga       4.82854080       6.34772587      13.31744099  F       0.00000000       0.00000000       0.00000000       0.15053701      -0.01198528      -0.30373490      -3.10636282
Ga       9.11895370       0.77623945      11.65279961  F       0.00000000       0.00000000       0.00000000       0.26283407       0.15074699       0.27555993      -2.58150935
Ga      10.71199894       1.24975562      13.72868633  F       0.00000000       0.00000000       0.00000000       0.14084834      -0.05243919      -0.46256176      -3.26875091
Ga       6.36392164       4.79524708      11.79963493  F       0.00000000       0.00000000       0.00000000      -0.10657096      -0.31131825       0.11104493      -2.55072975
Ga       6.43845810       6.84486987      15.31231037  T      -0.05378092      -0.73146755       0.23689453       0.00402160      -0.01814739      -0.00161642      -3.30882144
Ga       7.70194709       1.40524864      20.62408478  T       1.14531738       1.41891838      -1.27133803      -0.00537910       0.00277343      -0.02037799      -2.60423160
Ga       9.15265035       4.81858804      18.59588423  T      -0.79153760      -0.06594587       1.64236840      -0.03366880      -0.02341453      -0.07684954      -3.24243903
Ga       4.92174659       8.35787918      16.87835761  T      -0.30456707      -0.09128144      -0.55092779      -0.02332001       0.00530034       0.00230361      -3.31519508
Ga       6.48624629       8.80922624      18.96548537  T      -1.28942509       0.45920540       1.18712382      -0.01647020       0.00436764      -0.01193628      -3.10165572
Ga      10.75465974       3.26169788      17.25564519  T      -0.21810947       0.80802034       0.30721920      -0.00778830      -0.00713512      -0.00361054      -3.31421518
Ga       4.73354990       5.15826872      20.72492910  T      -1.18620569      -0.04349478       0.89366399       0.01888327      -0.00354473       0.02622899      -2.65592003
Y        0.36541278       3.78073927      14.73696857  T      -0.03726636       1.23284651      -2.92920577      -0.00259301       0.00511564       0.01890968      -7.57090187
Y        1.90320456       7.35664511      12.79558849  F       0.00000000       0.00000000       0.00000000      -0.11924780       0.13424547      -0.13620235      -7.14785004
Y        0.26163101       1.78515875      11.22613144  F       0.00000000       0.00000000       0.00000000      -0.14556591       0.05058937       0.84266716      -6.35753632
Y        1.77336216       0.24083631      14.44090843  F       0.00000000       0.00000000       0.00000000      -0.14526042       0.09341159      -0.19689263      -7.52028751
Y        3.35727143       3.78632760      12.41667271  F       0.00000000       0.00000000       0.00000000       0.03891585       0.07186088      -0.08084826      -7.15261698
Y        3.39911997       5.83594156      15.89765008  T       0.30569687      -0.56133174       0.06812113      -0.00768004      -0.00490647      -0.00090506      -7.55075264
Y        4.72928745       2.17391038      20.11048535  T       0.40617951       0.80472159      -0.96836707      -0.00047576       0.01369423       0.01069889      -7.12535667
Y        0.41786375       5.81437465      18.20655451  T       0.00260334      -0.47172446      -1.39916334       0.00185415       0.02018701      -0.00874221      -7.48023319
Y        4.71823684       0.22142062      16.72982602  T       0.23017389       0.12088943       0.14542170      -0.01307018       0.00535496      -0.00036805      -7.56080866
Y        3.57815363       7.81481170      19.51676040  T      -0.04841546      -1.39265287      -0.37741024      -0.04324276      -0.01863520      -0.01063707      -7.13556194
Y        1.77804211       2.26987870      17.84103357  T      -0.34493274      -0.88603861      -0.14064162      -0.01383199      -0.01862529      -0.03205804      -7.55088043
Y        1.72187088       4.21826509      21.17329140  T       0.48892870       1.84724884      -1.49926643      -0.02927359      -0.01418157       0.00855418      -6.73607731
Y        6.30440314       3.78146819      14.64261811  T      -0.12072450      -0.25995532      -2.12153030      -0.01358186       0.00610565       0.00415333      -7.57102776
Y        7.83519077       7.35664511      12.70040417  F       0.00000000       0.00000000       0.00000000      -0.13302279       0.13462079      -0.12929225      -7.14518881
Y        6.19361734       1.78515875      11.13094711  F       0.00000000       0.00000000       0.00000000      -0.14403187       0.05009269       0.84299850      -6.35689402
Y        7.70534849       0.24083631      14.34572411  F       0.00000000       0.00000000       0.00000000      -0.14776193       0.08603785      -0.16847625      -7.51911831
Y        9.28925800       3.78632760      12.32148743  F       0.00000000       0.00000000       0.00000000       0.03766739       0.06649772      -0.06044880      -7.14998245
Y        9.30987979       5.82916706      15.77962099  T      -1.81790442       0.53287869       2.46623354       0.00643861      -0.00124079       0.02589210      -7.54489899
Y       10.71982043       2.25022947      20.15793842  T      -0.75026942      -0.73042527       0.47657612       0.00975497       0.00192729      -0.01970243      -7.29590607
Y        6.33013317       5.83401504      18.15421944  T      -0.32852136      -1.64761184       0.13280146       0.00554679      -0.01198615      -0.03119449      -7.45714283
Y       10.64241068       0.22989231      16.62820809  T      -1.19552386       0.20915129      -0.65398835      -0.02480344       0.01022233       0.01167708      -7.55666876
Y        9.46030295       7.79837873      19.36703661  T       2.13971886      -0.86691854      -0.30009094      -0.00757106      -0.01180441       0.00431462      -7.14524078
Y        7.72838826       2.28525886      17.79225945  T       0.71671582      -1.36259989       0.43159067      -0.00546420      -0.01681266      -0.02636034      -7.57046223
Y        7.75688949       4.37023743      21.04885059  T       1.80034966      -1.30669815      -1.42285439      -0.00487672      -0.02774259       0.03081465      -6.53058434
H       -0.00153570       3.20428762      21.91115221  T      -0.15040152       0.09453341      -0.01334244       0.02146751      -0.03186394      -0.03359882      -3.45831728
