49
Lattice="11.863972663879395 0.0 -0.190369114279747 -2.7065036296844482 9.11697769165039 -0.3595939874649048 0.0 0.0 33.15761184692383" Properties=species:S:1:pos:R:3:move_mask:L:1:momenta:R:3:forces:R:3:energies:R:1 adsorbate_info="_JSON {\"site\": {\"coordinates\": [4.7250371, 2.29165745, 20.34256935], \"connectivity\": 1, \"topology\": [30], \"n_vector\": [0.031988673424204146, -0.041546126738672674, 0.9986243758919435], \"h_vector\": [1.0, 0.0, 0.0], \"site_formula\": {\"Y\": 1}}, \"smiles\": \"Cl\", \"mdf\": 1.3756497288606622, \"adsorbate_formula\": \"H\"}" bond_change_count=0 energy=-249.94442749023438 stress="0.00033093206002376974 1.4428806025534868e-05 2.4363580450881273e-06 1.4428806025534868e-05 0.00030244942172430456 4.209185590298148e-06 2.4363580450881273e-06 4.209185590298148e-06 8.881416579242796e-05" free_energy=-249.94442749023438 pbc="T T F"
Ga       3.26600485       2.80143522      15.24846441  T      -0.35375912      -0.08740802       0.42129489      -0.00382569       0.01048815       0.00180941      -3.29085064
Ga      -1.10344553       6.34772587      13.41262531  F       0.00000000       0.00000000       0.00000000       0.15144625      -0.01231037      -0.33367753      -3.10569787
Ga       3.18696737       0.77623945      11.74798393  F       0.00000000       0.00000000       0.00000000       0.26156902       0.15082937       0.27335250      -2.58194685
Ga       4.78001213       1.24975562      13.82387161  F       0.00000000       0.00000000       0.00000000       0.15798622      -0.05887887      -0.44337028      -3.26522088
Ga       0.43193507       4.79524708      11.89482021  F       0.00000000       0.00000000       0.00000000      -0.10831386      -0.30758309       0.10430558      -2.54975176
Ga       0.50808504       6.84820800      15.39899259  T       0.80517786       0.16511337      -0.46687254       0.00177534      -0.00522952       0.02169888      -3.30913115
Ga       1.71288190       1.35193741      20.69047407  T       0.02373257       0.37831833      -0.69441596       0.00494068      -0.02656996      -0.03317930      -2.60004640
Ga       3.26696092       4.84924987      18.67899247  T       0.35287868       2.13723617       0.51291143       0.02279467      -0.02118945      -0.03033515      -3.24893045
Ga      -1.02549533       8.35472628      16.98245831  T       0.72937569       0.55333412      -1.60993940      -0.00949210      -0.01041820      -0.02806628      -3.31624699
Ga       0.53604016       8.74536673      19.08224903  T       0.19163198       0.48235783      -0.90234249       0.01184535       0.04795888      -0.01318211      -3.09254408
Ga       4.82424440       3.25903542      17.33334135  T      -1.48535409       0.33386993       1.38979589       0.00014390      -0.00417411       0.01176825      -3.30348015
Ga      -1.10407270       5.18261020      20.79620509  T      -1.06407319      -0.59324999       1.28528074       0.01723837       0.00261375       0.03981233      -2.68991804
Ga       9.19492131       2.80898049      15.14963457  T       0.94757512      -1.14994325      -0.86622363      -0.01236746      -0.01143362      -0.01667617      -3.28760266
Ga       4.82854080       6.34772587      13.31744099  F       0.00000000       0.00000000       0.00000000       0.16519278      -0.00934351      -0.33755708      -3.10467219
Ga       9.11895370       0.77623945      11.65279961  F       0.00000000       0.00000000       0.00000000       0.26107135       0.14973915       0.27403748      -2.58142304
Ga      10.71199894       1.24975562      13.72868633  F       0.00000000       0.00000000       0.00000000       0.14740786      -0.05382061      -0.44470665      -3.26668382
Ga       6.36392164       4.79524708      11.79963493  F       0.00000000       0.00000000       0.00000000      -0.10927575      -0.30830437       0.11579043      -2.55130243
Ga       6.43612614       6.84183469      15.31453428  T       1.33614772      -0.10829532       1.59029898       0.01091436       0.00785505       0.00248806      -3.30808783
Ga       7.67686894       1.40359972      20.60802273  T      -0.24087462       0.69265771       0.48893218      -0.00377676      -0.02348953      -0.01882029      -2.61138916
Ga       9.19377286       4.82577497      18.60203601  T      -0.92636467       1.24706405       0.68983714      -0.01131348      -0.03384208      -0.06236625      -3.24847054
Ga       4.90528528       8.35547035      16.88734553  T       0.09662559       0.27977464       0.31786718      -0.00428019      -0.01108328      -0.02696030      -3.31403136
Ga       6.46567871       8.76644603      18.98515061  T      -0.75513498       0.27050396      -1.44284071      -0.00694646      -0.00445388      -0.04596686      -3.09768343
Ga      10.75284090       3.27034078      17.21499500  T      -1.29339568      -0.35397692       1.40647808       0.01752083      -0.01430567      -0.00570594      -3.30734539
Ga       4.82056101       5.20605235      20.71048368  T       0.94677808       0.42186817      -1.40382786       0.00762922       0.04078258      -0.00951912      -2.56422520
Y        0.37400585       3.78630208      14.73244662  T       0.66321967      -0.77319504      -0.17681044      -0.01065492      -0.01001474       0.00719164      -7.56912708
Y        1.90320456       7.35664511      12.79558849  F       0.00000000       0.00000000       0.00000000      -0.12566978       0.13841239      -0.13896108      -7.14435768
Y        0.26163101       1.78515875      11.22613144  F       0.00000000       0.00000000       0.00000000      -0.14563888       0.04990443       0.84436160      -6.35790634
Y        1.77336216       0.24083631      14.44090843  F       0.00000000       0.00000000       0.00000000      -0.15770966       0.08266036      -0.15251799      -7.52237177
Y        3.35727143       3.78632760      12.41667271  F       0.00000000       0.00000000       0.00000000       0.04216006       0.06851666      -0.07327943      -7.15152645
Y        3.39843551       5.84181659      15.87334029  T      -0.78999506       1.35762561      -0.25723344      -0.01593947      -0.00854153       0.02335494      -7.53781128
Y        4.68499456       2.23919062      20.18766682  T      -1.51142247      -0.68206295       0.03368779       0.00149553      -0.08111259      -0.05498900      -7.25902557
Y        0.43196487       5.82435004      18.22369809  T       1.66885903      -0.73349577       0.75119215      -0.00122219      -0.00493116      -0.00781785      -7.47708130
Y        4.69304176       0.21907268      16.75068156  T      -1.77131744       0.77793662      -0.78681471       0.01215589       0.02747550      -0.00545886      -7.56310034
Y        3.55380826       7.81202911      19.53181053  T       0.73990390       0.29807249       0.50729909      -0.01592219      -0.00934612      -0.03362165      -7.13659477
Y        1.77979908       2.28898450      17.85657642  T      -0.25302067       1.97663302       0.03510469      -0.01170212      -0.01798389      -0.02335032      -7.54773521
Y        1.92218442       4.32065575      21.14415637  T       3.30701782       0.32324503      -0.66379677      -0.04809593       0.00198784       0.03479449      -6.67483473
Y        6.30038199       3.78880025      14.64749353  T       0.64265705       0.13603072       0.47705137       0.00006663      -0.02251944       0.00098609      -7.57148552
Y        7.83519077       7.35664511      12.70040417  F       0.00000000       0.00000000       0.00000000      -0.13288900       0.13550502      -0.11887366      -7.14395332
Y        6.19361734       1.78515875      11.13094711  F       0.00000000       0.00000000       0.00000000      -0.14695610       0.04925785       0.84744036      -6.35598326
Y        7.70534849       0.24083631      14.34572411  F       0.00000000       0.00000000       0.00000000      -0.15517338       0.08649479      -0.14680433      -7.52506399
Y        9.28925800       3.78632760      12.32148743  F       0.00000000       0.00000000       0.00000000       0.03767985       0.07175773      -0.07591021      -7.15268087
Y        9.32983034       5.84001692      15.78670328  T      -0.53843409      -0.91794664       0.31321468      -0.02344165      -0.00254741       0.02084269      -7.54929018
Y       10.64918774       2.20458428      20.02803551  T       0.60209585       0.92476149      -1.04407580      -0.00774615      -0.02789775       0.00105358      -7.11619473
Y        6.34163529       5.81326956      18.14138961  T       1.24881208       0.07827233       2.46210582       0.00003656       0.00627174       0.01873758      -7.47235584
Y       10.63416079       0.22166634      16.64876008  T       1.18537170      -0.61519179      -1.39123230      -0.01024961       0.00882749      -0.00432539      -7.56183958
Y        9.48444417       7.78138542      19.43453089  T       0.67149134      -0.78021931      -1.16860777      -0.03110007       0.00116603      -0.03429034      -7.13146114
Y        7.71914483       2.28237839      17.76996077  T      -1.26367618      -0.13006153       1.84046242      -0.04679221      -0.00114551      -0.00343728      -7.55037975
Y        7.83238153       4.35566250      21.05008759  T      -0.87690036      -0.60775567      -2.96964466      -0.01677077      -0.02052023       0.05541500      -6.51043606
H        3.92843958       3.72069940      21.67908732  T      -0.83900218       0.36089896      -0.87241540       0.04019535      -0.01551425       0.02448591      -3.76526284
