49
Lattice="11.863972663879395 0.0 -0.190369114279747 -2.7065036296844482 9.11697769165039 -0.3595939874649048 0.0 0.0 33.15761184692383" Properties=species:S:1:pos:R:3:move_mask:L:1:momenta:R:3:forces:R:3:energies:R:1 adsorbate_info="_JSON {\"site\": {\"coordinates\": [3.30229592, 4.82822943, 18.93536949], \"connectivity\": 1, \"topology\": [7], \"n_vector\": [0.4668075023037752, 0.3944171531707965, 0.7915338685599974], \"h_vector\": [1.0, 0.0, 0.0], \"site_formula\": {\"Ga\": 1}}, \"smiles\": \"Cl\", \"mdf\": 1.37564972886066, \"adsorbate_formula\": \"H\"}" bond_change_count=0 energy=-249.93048095703125 stress="0.00034576025791466236 2.53513571806252e-05 1.6546233609915362e-06 2.53513571806252e-05 0.0003268581931479275 -2.7390799459681148e-06 1.6546233609915362e-06 -2.7390799459681148e-06 0.00010893742000916973" free_energy=-249.93048095703125 pbc="T T F"
Ga       3.26138309       2.80080509      15.24897675  T      -1.08886154       0.85481145       0.31700021       0.00456384      -0.01538972      -0.03196038      -3.28875208
Ga      -1.10344553       6.34772587      13.41262531  F       0.00000000       0.00000000       0.00000000       0.15105526      -0.01813177      -0.34023270      -3.10425806
Ga       3.18696737       0.77623945      11.74798393  F       0.00000000       0.00000000       0.00000000       0.26176822       0.14936857       0.27306253      -2.58191609
Ga       4.78001213       1.24975562      13.82387161  F       0.00000000       0.00000000       0.00000000       0.14947483      -0.06559470      -0.43954256      -3.26492500
Ga       0.43193507       4.79524708      11.89482021  F       0.00000000       0.00000000       0.00000000      -0.10877104      -0.30710784       0.11067344      -2.55136037
Ga       0.50220161       6.84121609      15.40276248  T      -0.75244156       0.51357588      -0.67170612       0.00695784      -0.01898494       0.01288368      -3.30784464
Ga       1.74638138       1.44767481      20.72142158  T       0.53226483       1.02426959      -0.37668136      -0.00121643      -0.02086246      -0.02494203      -2.58689666
Ga       3.26940780       4.79107339      18.68109989  T      -1.55583174      -2.27067379      -1.12884963       0.07492575      -0.03256580       0.02574617      -3.27255726
Ga      -1.05314572       8.34064186      16.96849677  T      -1.79200611      -0.06995693      -0.23462973       0.00598211      -0.01872428       0.00544067      -3.30855060
Ga       0.50097772       8.78585480      19.05405774  T       0.14096969       0.76727694      -0.92233034      -0.01166317       0.01480747      -0.02225363      -3.11464190
Ga       4.84305348       3.23206752      17.31490764  T      -0.35015909      -0.89886696       0.18695635      -0.01130483       0.01153662       0.02718194      -3.29570365
Ga      -1.11904325       5.18933818      20.81774014  T      -1.14609029       0.50890941      -0.82110122      -0.04793495      -0.02763286      -0.01299708      -2.68369389
Ga       9.19470951       2.79863506      15.16281619  T       0.85154355       0.29686102       1.17593000      -0.01305175      -0.00906821      -0.04843306      -3.28972316
Ga       4.82854080       6.34772587      13.31744099  F       0.00000000       0.00000000       0.00000000       0.14799044      -0.01356657      -0.31904328      -3.10381293
Ga       9.11895370       0.77623945      11.65279961  F       0.00000000       0.00000000       0.00000000       0.26048583       0.14852455       0.27526426      -2.58236194
Ga      10.71199894       1.24975562      13.72868633  F       0.00000000       0.00000000       0.00000000       0.13709427      -0.06673594      -0.43495995      -3.26631641
Ga       6.36392164       4.79524708      11.79963493  F       0.00000000       0.00000000       0.00000000      -0.10763189      -0.30738431       0.10857761      -2.55059052
Ga       6.43014017       6.84127595      15.31393589  T      -0.07116158      -1.33944882      -0.86011799      -0.00438194      -0.00547092       0.01472554      -3.30914903
Ga       7.66757524       1.31046676      20.61182144  T       0.51211084      -0.64063604      -0.75110617       0.00189467       0.04022404      -0.02429502      -2.61015892
Ga       9.19321235       4.80812857      18.60868088  T      -1.17643591      -0.00069854      -0.14419507       0.01687867      -0.00690265       0.02820560      -3.24883246
Ga       4.87785831       8.33600739      16.92685347  T       0.38739891       0.17347630      -0.96957697      -0.01672781      -0.03243393      -0.01612807      -3.30397129
Ga       6.46061774       8.71063002      19.00142905  T       0.77112231       0.05411231      -0.94671952      -0.02872219       0.01555577      -0.00730513      -3.07787585
Ga      10.76317043       3.25907394      17.22215153  T       0.42552527       1.42370526      -0.00828650      -0.00017308      -0.01996381       0.01040509      -3.30015516
Ga       4.87777438       5.12183603      20.69608348  T      -0.65370591       0.19469909       1.42751815      -0.02689126       0.00473475      -0.03318126      -2.69775486
Y        0.36285951       3.77798876      14.73479338  T      -0.91300136      -1.01302767      -0.00261282       0.01997384      -0.00158942       0.00500407      -7.56720448
Y        1.90320456       7.35664511      12.79558849  F       0.00000000       0.00000000       0.00000000      -0.12695506       0.13564663      -0.12506959      -7.14475441
Y        0.26163101       1.78515875      11.22613144  F       0.00000000       0.00000000       0.00000000      -0.14752874       0.05003442       0.84664154      -6.35839939
Y        1.77336216       0.24083631      14.44090843  F       0.00000000       0.00000000       0.00000000      -0.17308496       0.07421303      -0.16645166      -7.52529907
Y        3.35727143       3.78632760      12.41667271  F       0.00000000       0.00000000       0.00000000       0.03566767       0.06942577      -0.07117798      -7.15281868
Y        3.39207525       5.81877722      15.88044083  T      -0.59638547      -0.23098401       1.37418164      -0.00139985       0.01485700       0.00136089      -7.54041529
Y        4.71857309       2.15720597      20.14155786  T      -0.55800324      -2.12025773      -0.17268623       0.02589511       0.00765982      -0.01598233      -7.13398457
Y        0.42404255       5.82169106      18.23384965  T       0.48973426      -2.36902242       0.08061093      -0.00920953       0.03168423       0.01992539      -7.49858141
Y        4.68907567       0.19289377      16.75013485  T      -0.71969795      -1.57457753      -0.18897132       0.04266750       0.03035276       0.00251192      -7.56674290
Y        3.47715546       7.66926248      19.66741894  T      -1.01918512      -0.67737593      -0.53836907       0.00800121      -0.04343963      -0.04564565      -7.35647964
Y        1.78667681       2.25573964      17.84964095  T      -0.27008125      -1.32370784      -1.72928851      -0.04913404       0.00288625       0.00962083      -7.55191851
Y        1.92548598       4.51549328      21.18755394  T       0.05094622      -0.73939695      -3.54385922       0.02150223       0.00290074      -0.03416219      -6.79008245
Y        6.29865454       3.78258279      14.63884180  T      -1.21750913      -0.20901203       0.28626781       0.02101990      -0.01545476       0.01184843      -7.57121181
Y        7.83519077       7.35664511      12.70040417  F       0.00000000       0.00000000       0.00000000      -0.13585769       0.13500337      -0.11540050      -7.14439201
Y        6.19361734       1.78515875      11.13094711  F       0.00000000       0.00000000       0.00000000      -0.14669952       0.04994120       0.84705245      -6.35843468
Y        7.70534849       0.24083631      14.34572411  F       0.00000000       0.00000000       0.00000000      -0.16626918       0.06408553      -0.09929856      -7.52345610
Y        9.28925800       3.78632760      12.32148743  F       0.00000000       0.00000000       0.00000000       0.03570015       0.06505711      -0.05797515      -7.15130949
Y        9.33618291       5.83081915      15.78563885  T       0.80885393      -0.35779430      -0.66259593      -0.04325292      -0.00957331       0.02909846      -7.54623222
Y       10.64099951       2.20098083      20.04162084  T       1.02037834      -0.28624571      -0.30368577       0.00965963      -0.02946857      -0.01616926      -7.12477779
Y        6.37299830       5.80266359      18.12881309  T       0.21827304      -0.18251561       0.13872605      -0.00242792      -0.00793523       0.01534926      -7.49268341
Y       10.60689887       0.20479081      16.65874894  T       0.53619970       0.27541169      -0.20082669       0.02565631       0.01502794      -0.01006552      -7.56059599
Y        9.48561277       7.81287102      19.45431112  T       0.50682355      -2.00090232       0.80831323      -0.01100989       0.00273223      -0.04057065      -7.13380146
Y        7.72508111       2.26318082      17.77694920  T      -1.58014228      -0.45461440      -0.30845108      -0.04279746       0.00394013      -0.00204469      -7.53598881
Y        7.83068156       4.27868488      21.07271097  T       0.72505343       1.85622136      -0.57351752      -0.00903039      -0.01463159      -0.05282962      -6.50336838
H        2.28415304       6.65403323      21.16682228  T      -0.50687883       1.48223842       0.88120550      -0.02168762      -0.03158684      -0.07246222      -3.39586973
