49
Lattice="11.863972663879395 0.0 -0.190369114279747 -2.7065036296844482 9.11697769165039 -0.3595939874649048 0.0 0.0 33.15761184692383" Properties=species:S:1:pos:R:3:move_mask:L:1:momenta:R:3:forces:R:3:energies:R:1 adsorbate_info="_JSON {\"site\": {\"coordinates\": [5.381822666666664, 6.156904383333335, 16.57400926], \"connectivity\": 3, \"topology\": [17, 29, 43], \"n_vector\": [-0.544439451493881, -0.34754499285729235, 0.7634121832908267], \"h_vector\": [0.7818046773019329, 0.006706652705739207, 0.6234873433826104], \"site_formula\": {\"Ga\": 1, \"Y\": 2}}, \"smiles\": \"S1S\", \"mdf\": 1.8914828379093787, \"adsorbate_formula\": \"H\"}" bond_change_count=0 energy=-250.11050415039062 stress="0.0003399249108042568 2.4758235667832196e-05 -1.6976240431176848e-06 2.4758235667832196e-05 0.00032745441421866417 5.553225150833896e-07 -1.6976240431176848e-06 5.553225150833896e-07 0.00012628969852812588" free_energy=-250.11050415039062 pbc="T T F"
Ga       3.27562866       2.79155997      15.27375435  T      -0.09538903      -0.00887389      -1.29219397       0.00813870       0.02821697       0.02116825      -3.27975297
Ga      -1.10344553       6.34772587      13.41262531  F       0.00000000       0.00000000       0.00000000       0.07804688      -0.05443273      -0.38388699      -3.09379292
Ga       3.18696737       0.77623945      11.74798393  F       0.00000000       0.00000000       0.00000000       0.25416499       0.15198570       0.26957634      -2.58097553
Ga       4.78001213       1.24975562      13.82387161  F       0.00000000       0.00000000       0.00000000       0.15532258      -0.07143471      -0.35693547      -3.25513649
Ga       0.43193507       4.79524708      11.89482021  F       0.00000000       0.00000000       0.00000000      -0.10962822      -0.31146526       0.14360107      -2.55036998
Ga       0.46259490       6.82982670      15.38341953  T       1.25810329       0.58880213       0.62168123       0.00691213       0.03014656       0.06019863      -3.28924465
Ga       1.72976002       1.45555351      20.76683247  T       0.44916387      -0.46226037      -1.42399503      -0.03173897      -0.03588405      -0.01351206      -2.60652113
Ga       3.28712015       4.70721088      18.77061848  T       0.10096533      -0.29200089       1.14450399       0.06331627       0.01830466       0.01285388      -3.24713206
Ga      -1.07073545       8.37013234      17.00467760  T       1.48026764       0.46062098       0.99498168       0.04299705      -0.04479196      -0.00028641      -3.31133032
Ga       0.46985099       8.83091946      19.16102150  T      -0.19756856      -0.77305783       0.05196518      -0.02825860      -0.05298943      -0.06218642      -3.07032919
Ga       4.85331072       3.20847158      17.35295816  T      -0.46575261       1.23799191       0.94749014      -0.04658608       0.01667909      -0.07137336      -3.28799200
Ga      -1.09709910       5.19505545      20.80886112  T       0.20284575       0.66040315      -2.10625169      -0.02668156       0.04065850      -0.00519469      -2.70581508
Ga       9.21027393       2.81564704      15.16307764  T       0.40583512      -1.20431960       0.03625445      -0.00424861       0.00799055       0.01950827      -3.29172397
Ga       4.82854080       6.34772587      13.31744099  F       0.00000000       0.00000000       0.00000000       0.13531312      -0.00439409      -0.18631820      -3.10421801
Ga       9.11895370       0.77623945      11.65279961  F       0.00000000       0.00000000       0.00000000       0.26085895       0.15514445       0.27872965      -2.57788014
Ga      10.71199894       1.24975562      13.72868633  F       0.00000000       0.00000000       0.00000000       0.14794667      -0.05067578      -0.43585500      -3.26344728
Ga       6.36392164       4.79524708      11.79963493  F       0.00000000       0.00000000       0.00000000      -0.10880426      -0.32218006       0.13822864      -2.55179286
Ga       6.46149698       6.83062292      15.31661797  T      -1.14232202       0.14043511       1.28696760      -0.04066080       0.02464014       0.01681890      -3.29812622
Ga       7.68624083       1.39803084      20.61078618  T       0.35159901       0.38387537       0.14167710      -0.04589192      -0.02704149      -0.00332022      -2.61942720
Ga       9.19667219       4.84363026      18.63255353  T       0.21382480      -0.40661881       0.69139937       0.04187147      -0.02444146      -0.05213831      -3.23862386
Ga       4.99882707       8.39361696      16.88796847  T       0.22720124       1.16820447       0.03414303      -0.00239452      -0.01407544      -0.02682958      -3.30945849
Ga       6.48800008       8.75598752      19.04148446  T       0.07932821      -0.47680219      -0.55243667      -0.02203033      -0.01730719      -0.07653603      -3.08224249
Ga      10.79769651       3.31044288      17.26967745  T       0.71836594       0.49703040       0.49170643      -0.06282287       0.01228990      -0.02671344      -3.30282402
Ga       4.82017781       5.20148475      20.77408669  T      -0.96236763       0.53800746      -0.86390655      -0.03213620       0.02228633      -0.06859832      -2.66721940
Y        0.37795136       3.76996968      14.76071691  T      -0.09958150       0.62623808       1.14746692      -0.00597366       0.00016976      -0.04013654      -7.56984901
Y        1.90320456       7.35664511      12.79558849  F       0.00000000       0.00000000       0.00000000      -0.12617379       0.12646347      -0.11605141      -7.13793230
Y        0.26163101       1.78515875      11.22613144  F       0.00000000       0.00000000       0.00000000      -0.14474542       0.04714181       0.84930599      -6.35201740
Y        1.77336216       0.24083631      14.44090843  F       0.00000000       0.00000000       0.00000000      -0.14679225       0.10009472      -0.12204580      -7.52169037
Y        3.35727143       3.78632760      12.41667271  F       0.00000000       0.00000000       0.00000000       0.03901360       0.04895733      -0.00123107      -7.14277220
Y        3.40006533       5.87623195      15.97692065  T      -1.43139579      -0.00773856       1.20105994      -0.01842928      -0.00133206      -0.00811142      -7.61102104
Y        4.71159068       2.22376510      20.19760470  T      -0.43013650       0.99856237       1.38041034       0.02838181       0.00565080      -0.01031669      -7.11709785
Y        0.50860443       5.92088782      18.25832793  T       1.35623701      -0.57044702      -0.64084905       0.00430721       0.02789669      -0.07616550      -7.52769184
Y        4.67457430       0.12577182      16.82307062  T      -2.07487341      -0.31973325       1.41726287       0.03782637      -0.01023275      -0.03303082      -7.61086655
Y        3.55185019       7.77790883      19.48553871  T      -0.95797813       0.42777702      -0.42673517      -0.04442468      -0.01577779      -0.02380724      -7.24695587
Y        1.77086606       2.27413947      17.89882245  T       0.10761536       0.62435561      -0.80668396       0.01968030      -0.01954915      -0.00649887      -7.54758883
Y        1.86439574       4.37794027      21.20620838  T       0.55075304      -0.38354541      -1.25533047       0.01580289      -0.04595605       0.04261081      -6.50547409
Y        6.27739288       3.79188944      14.66567648  T       0.61659476       0.11063777       1.10056233       0.01254128      -0.00556094      -0.01314547      -7.57580662
Y        7.83519077       7.35664511      12.70040417  F       0.00000000       0.00000000       0.00000000      -0.11960547       0.12600537      -0.11994404      -7.13997746
Y        6.19361734       1.78515875      11.13094711  F       0.00000000       0.00000000       0.00000000      -0.15361835       0.04507870       0.85972130      -6.35105228
Y        7.70534849       0.24083631      14.34572411  F       0.00000000       0.00000000       0.00000000      -0.13672972       0.09513851      -0.13020469      -7.52790070
Y        9.28925800       3.78632760      12.32148743  F       0.00000000       0.00000000       0.00000000       0.04017552       0.06742692      -0.04705971      -7.15285015
Y        9.33600438       5.83338687      15.81123077  T      -1.06554599      -1.09142444       0.38716488      -0.00904413       0.00112144       0.00530689      -7.55998135
Y       10.63161502       2.21269880      20.08672897  T       0.12152687       0.14337735      -0.55934224       0.04017129       0.01013032      -0.03592213      -7.10384369
Y        6.38719544       5.81164930      18.16872766  T       0.32491632      -0.19298643       2.34286284      -0.01850698      -0.00035899      -0.02223665      -7.45314980
Y       10.62947699       0.26661780      16.67516219  T       1.03508554      -1.05425543      -1.50809432      -0.00871718      -0.03785612      -0.03073345      -7.56272507
Y        9.46752627       7.82388026      19.49155446  T      -0.81723777       0.02566606       1.17587263       0.01648948      -0.00538029      -0.06013473      -7.12611485
Y        7.72423830       2.30693920      17.77560405  T       0.13234196       1.08914305       0.97455164       0.01916776      -0.00787417       0.00482174      -7.53620768
Y        7.81098542       4.36572639      21.07868614  T       1.11013165      -0.76746460      -1.37718781       0.01699405      -0.05102868       0.02890292      -6.50847054
H        2.35796202       7.20192440      17.60019231  T      -1.57094978       0.42772466      -0.46615006       0.00920359       0.02240193      -0.08489232      -4.03622293
