87
Lattice="13.315120697021484 -0.0 -8.000000134899068e-16 -1.2000000467046398e-15 7.687488555908203 -2.748189687728882 -0.0 3.700000002833815e-15 30.230087280273438" Properties=species:S:1:pos:R:3:move_mask:L:1:momenta:R:3:forces:R:3:energies:R:1 adsorbate_info="_JSON {\"site\": {\"coordinates\": [7.397289276666666, 7.433548888636068, 16.129256644090376], \"connectivity\": 3, \"topology\": [3, 8, 51], \"n_vector\": [-0.1331551598016115, 0.21545336633983858, 0.967393172578264], \"h_vector\": [0.9723955722915301, 0.23333849015502708, 0.0], \"site_formula\": {\"Cr\": 2, \"N\": 1}}, \"smiles\": \"S1S\", \"mdf\": 1.5057736562628279, \"adsorbate_formula\": \"CHO\"}" bond_change_count=0 energy=-770.4351806640625 stress="0.000590234762057662 1.892689942906145e-05 2.4636708985781297e-05 1.892689942906145e-05 0.0004184472491033375 2.0806360225833487e-06 2.4636708985781297e-05 2.0806360225833487e-06 0.00039583741454407573" free_energy=-770.4351806640625 pbc="T T F"
Cr       3.62593729       4.10614692      15.25246665  T       0.47766725      -1.80322153       0.65238175      -0.00688189       0.01288426       0.02948218     -10.20985603
Cr      10.14564258       0.29569506      17.91117696  T      -0.60988372       0.05889219      -0.64973814       0.02996343       0.02091882       0.00686598      -9.23877144
Cr       0.93255948       4.42652587      15.20799873  T      -0.81988616      -0.14859379       1.46191399       0.04602483       0.00406978      -0.01511815     -10.44656372
Cr       7.61207696       0.41262336      17.82963630  T       1.43870638       2.22704854      -1.68838518      -0.05821782      -0.00973517      -0.02038980      -9.41558170
Cr       2.15707545       2.22211293      17.58327674  T      -1.97477295       1.41003395      -2.52570536      -0.02537468       0.03441402       0.06979167      -9.81167984
Cr       8.70683458       5.65660271      15.44137201  T      -0.74092621      -0.76491129       2.15283485      -0.04360306       0.05754822       0.02682939     -10.08672523
Cr       3.07928988       6.49215675      16.41041952  T      -1.93391379       0.09958697      -1.18502493      -0.04858118      -0.03832884      -0.03457260      -8.69838047
Cr       9.51628427       2.89393284      16.87261319  T      -0.74211754       0.95578073       2.14721339       0.03670701       0.01277640       0.03474867     -10.47783184
Cr       5.62164008       6.54278792      16.49507516  T      -2.14321781      -2.70530627      -3.77345523       0.04888053      -0.06186831       0.00268096      -9.31271267
Cr      12.53774212       2.38279018      16.94500310  T       2.36932783      -0.41983133       3.19149137       0.00912197      -0.05485669       0.04543883     -10.46748257
Cr       4.42118814       1.17610289      16.72182154  T       1.94556604       1.63047493       1.12220960      -0.01919466       0.01511234       0.00347480     -10.02698898
Cr      11.42013882       4.81251770      16.46463058  T       1.46213626      -1.22379301      -1.72256448       0.01385316      -0.01617271       0.02956402      -9.67608070
Cr       3.51657271       4.32285738      12.46500301  F       0.00000000       0.00000000       0.00000000       0.27127975      -0.01620770      -0.06966187     -10.22390747
Cr      10.21898443       0.50455787      15.19310458  T      -0.20100258      -0.40997521       0.29322401       0.01673073      -0.02893940       0.01039932     -10.22874928
Cr       0.93565130       4.34684753      12.46500301  F       0.00000000       0.00000000       0.00000000       0.02194452       0.05881178      -0.06005029     -10.30281830
Cr       7.62320274       0.49001234      15.18843074  T      -0.65717165       0.39702204      -0.28418859       0.00496879      -0.00313598      -0.04476198     -10.10518742
Cr       2.07569143       2.07742164      15.09384046  T       0.29849647       0.46566947       0.33679990      -0.00926256      -0.00940472      -0.01957707     -10.17060471
Cr       8.86289692       5.94345331      12.46500301  F       0.00000000       0.00000000       0.00000000       0.00806510      -0.05397290      -0.06644252     -10.28946495
Cr       3.08373687       6.67975963      13.70905964  T      -0.30212291       0.30966479      -1.26707308       0.01229316      -0.01867726       0.03679387     -10.22131920
Cr       9.80175078       2.86123220      13.85683187  T      -0.67295006      -0.46734154       0.71408395      -0.00056392       0.01994101       0.02949640     -10.25454140
Cr       5.72181142       6.64268766      13.72560156  T      -0.73622631      -0.59376363      -0.38084012       0.00554153      -0.01842630       0.02046904     -10.06320000
Cr      12.38609750       2.81018169      13.84666428  T       0.98488854       0.01552182      -0.39500715       0.03750476      -0.03943121       0.02481826     -10.29089546
Cr       4.48875395       1.19004378      13.73221010  T      -0.40974605      -0.04727004      -0.93456779      -0.02875900      -0.00140530      -0.04082146     -10.42163277
Cr      11.07208160       5.06115445      13.79380964  T      -0.38422851      -0.20462528       0.94192790       0.03153238      -0.00458556      -0.01361564     -10.20711708
Cr       3.51657271       4.32285738       9.71681404  F       0.00000000       0.00000000       0.00000000      -0.08212201       0.93186295       0.88444448      -8.79871750
Cr      10.17413330       0.47911340      12.46500301  F       0.00000000       0.00000000       0.00000000       1.97591245      -0.29300737      -0.24014682     -10.05927944
Cr       0.93565130       4.34684753       9.71681404  F       0.00000000       0.00000000       0.00000000       0.67031628       2.14487576       1.30081916      -8.67259216
Cr       7.59321165       0.50310314      12.46500301  F       0.00000000       0.00000000       0.00000000      -2.50509143       1.00327587      -1.28298378     -10.14587688
Cr       2.20533633       2.09970903      12.46500301  F       0.00000000       0.00000000       0.00000000      -0.40295380      -1.86360776      -2.39966583     -10.45940685
Cr       8.86289692       5.94345331       9.71681404  F       0.00000000       0.00000000       0.00000000      -0.95324999      -0.42357025       1.53018236      -8.98262119
Cr       3.14098763       6.70049572      11.09090900  F       0.00000000       0.00000000       0.00000000      -0.48756295      -0.06045168      -1.75490999     -10.44862366
Cr       9.79854774       2.85675168      11.09090900  F       0.00000000       0.00000000       0.00000000      -0.60146677      -0.56222475       1.45945036      -8.89066315
Cr       5.72190905       6.67650604      11.09090900  F       0.00000000       0.00000000       0.00000000       0.42403495      -0.57190609      -1.62688625     -10.50508595
Cr      12.37946892       2.83276200      11.09090900  F       0.00000000       0.00000000       0.00000000      -0.03350362      -1.31944811       1.63345122      -8.98584938
Cr       4.45222378       1.23615611      11.09090900  F       0.00000000       0.00000000       0.00000000       0.96276408      -1.39553595       1.63102984      -9.37820339
Cr      11.10978413       5.07990026      11.09090900  F       0.00000000       0.00000000       0.00000000       0.39910224       2.10596800      -0.12208270      -9.88120270
N        3.72822550       2.15968718      18.20468539  T      -2.38285174      -0.99713702      -1.26219114      -0.04836345      -0.01169854      -0.04812551      -7.01715755
N       10.74265517       6.24961969      15.42505758  T      -0.09218627      -0.00378143       0.33236708       0.02779511      -0.01506820      -0.00784519      -8.59392357
N        1.92648689       6.06643821      15.13802265  T       0.49079624       0.59627672       0.36927895       0.05511227       0.05056031       0.00506608      -8.28812313
N        8.65334843       1.97088696      17.99089560  T       0.43650616      -0.32637697      -1.29421737      -0.01477853      -0.04115957      -0.01598018      -7.69025373
N        0.41267355       2.01155092      18.09227378  T       1.71684699       0.06175624      -1.80867587      -0.01967174       0.02760115       0.00027072      -7.65336418
N        6.83675873       6.13053890      15.23220037  T      -0.59489215       0.32156052       0.38579964       0.02558689       0.00414774      -0.01466380      -8.65435219
N        2.39524699       0.79345524      16.48405659  T       0.14232410      -0.17719587       0.55054186      -0.00838703      -0.03803533      -0.04060575      -8.46702194
N        8.72367638       4.38774252      16.61487660  T       0.89376401      -0.04158582      -1.51258308       0.00223595      -0.01059650      -0.03143805      -7.85919094
N        4.51045879       5.17143637      16.56927367  T      -0.94612007       2.34873803       0.03220635       0.01159722       0.02366152      -0.01017159      -8.01275253
N       11.33555959       1.02474274      16.72137206  T      -0.73285702      -0.48502452       0.31808141      -0.01476511       0.00982207       0.02195916      -8.42635822
N        6.32552514       0.86203033      16.60169285  T       0.45388879      -0.54902100       0.31595641       0.02841822       0.00969762      -0.00110354      -8.56544495
N       13.07795127       4.96874575      16.48610731  T      -0.79835709       0.01893585      -1.30111958      -0.03700548       0.02222434      -0.00084502      -7.62788868
N        4.39195164       7.47780703      15.55807490  T       0.03693891       0.20571629       1.09499358      -0.01956505       0.03747733      -0.04028302      -8.64026833
N       11.15576460       3.49657418      17.72184075  T       0.17972060       0.58387681      -1.91746440       0.01634913       0.00510372      -0.01294470      -7.53934717
N        2.21111898       3.65035727      16.43683365  T       0.10724335      -0.44781411      -1.27172885       0.00704193       0.02706802       0.00223327      -8.35130596
N        8.67389847       7.46057523      16.67870410  T      -1.13765436       0.36740249       0.38094833       0.01374707       0.00539102      -0.01686323      -8.29784012
N        4.34639370       2.45883965      15.25170647  T       0.26920328      -0.53878997      -0.23886017      -0.03624162      -0.03378713      -0.02194285      -8.18972111
N       10.91840553       6.40247297      12.46500301  F       0.00000000       0.00000000       0.00000000      -0.11201525      -0.89028597      -0.19895673      -8.33692551
N        2.09129524       5.87347078      12.46500301  F       0.00000000       0.00000000       0.00000000       0.20405914       0.05423479      -0.63018692      -8.39702702
N        8.90900443       1.95622916      15.26296927  T       0.91500944      -0.21088425      -0.03051499       0.00553977       0.00873746       0.00761146      -8.38722324
N        0.21972378       2.32539201      15.24357400  T      -0.40983793       0.54757442      -0.38040427       0.00293706       0.03160840       0.00561935      -8.33949947
N        6.96297979       6.18095827      12.46500301  F       0.00000000       0.00000000       0.00000000      -0.25587368       0.19361603      -0.08347798      -8.34750557
N        2.46829886       0.82516341      13.80243044  T       0.88422879       0.95354330       0.03259799       0.01095027       0.05479628       0.01395337      -8.44257259
N        9.06461310       4.67735292      13.87935839  T       0.40056319       0.54577854       0.07442652       0.00972280      -0.02389283       0.02789462      -8.29020214
N        4.40527279       5.23056768      13.88353720  T      -0.95771312       0.14614515       0.07847637      -0.03005034       0.04288314      -0.00719305      -8.44754410
N       11.16667385       1.27053725      13.79310385  T      -1.02665053      -0.21112006      -0.28699492      -0.03679672       0.01185498       0.03486561      -8.38852692
N        6.42757970       0.93964925      13.82093246  T       1.06328465      -1.01931753      -0.29645792       0.03312421       0.00626802       0.00689121      -8.44028091
N       13.02788097       4.78283085      13.79398759  T       0.43814704      -0.97060172      -0.07672321       0.01937968       0.00092357      -0.00249837      -8.20188618
N        4.43837357       7.43354893      12.46500301  F       0.00000000       0.00000000       0.00000000      -0.10868262       0.11350535       0.35211989      -8.97060776
N       11.12436860       3.58339661      15.10223916  T      -0.06381520      -0.02200341      -1.01175868      -0.02489657       0.00927572      -0.01313224      -8.74413300
N        2.23634694       3.58928098      13.81908978  T       0.05866940      -0.02568510      -0.28967869       0.01649931      -0.00947637       0.00972311      -8.96285820
N        8.86810334       7.40910808      13.91665415  T      -0.18985389       0.03543431       0.03263737       0.00406536      -0.00593761      -0.01002353      -9.08675575
N        4.26084566       2.55872869      12.46500301  F       0.00000000       0.00000000       0.00000000      -0.05898583      -0.53365457      -0.64042050      -8.51660919
N       10.91840553       6.40247297       9.71681404  F       0.00000000       0.00000000       0.00000000      -1.77273011      -0.24609061       0.72257090      -7.57764006
N        2.09129524       5.87347078       9.71681404  F       0.00000000       0.00000000       0.00000000       0.40506709      -2.37557936       0.89875549      -7.44478321
N        8.74885559       2.02972674      12.46500301  F       0.00000000       0.00000000       0.00000000       0.75151277      -0.13849534      -0.82822365      -8.64094543
N        0.30541945       2.33721423      12.46500301  F       0.00000000       0.00000000       0.00000000      -0.52921671       0.46432817      -0.60797620      -8.42796993
N        6.96297979       6.18095827       9.71681404  F       0.00000000       0.00000000       0.00000000       1.63567173       0.93158787       0.48293972      -7.35450268
N        2.39671469       0.77713639      11.09090900  F       0.00000000       0.00000000       0.00000000       2.16439414       2.28790450       1.87588525      -5.72417974
N        9.05427456       4.62088060      11.09090900  F       0.00000000       0.00000000       0.00000000       0.40512443       0.28889048      -0.84254551      -8.84415054
N        4.56626511       5.14988232      11.09090900  F       0.00000000       0.00000000       0.00000000      -0.57437301      -0.44740719      -0.30404404      -8.51807594
N       11.22382545       1.30613840      11.09090900  F       0.00000000       0.00000000       0.00000000      -0.57693160       1.63748491       0.40403682      -7.67552614
N        6.35214090       0.99865079      11.09090900  F       0.00000000       0.00000000       0.00000000      -1.17243302      -0.33582553       1.59239507      -6.76630020
N       13.00970078       4.84239483      11.09090900  F       0.00000000       0.00000000       0.00000000      -0.03309925      -1.25081074      -0.78368676      -8.85433865
N        4.43837357       7.43354893       9.71681404  F       0.00000000       0.00000000       0.00000000      -0.14650461       0.79794270       0.90863872      -7.67098951
N       11.09593391       3.58980465      12.46500301  F       0.00000000       0.00000000       0.00000000      -0.10321608      -0.11873204      -1.52145195      -9.30501175
N        2.21918678       3.58980465      11.09090900  F       0.00000000       0.00000000       0.00000000      -0.08199152       0.41223663      -0.83699512      -8.86076546
N        8.87674713       7.43354893      11.09090900  F       0.00000000       0.00000000       0.00000000       0.20130467      -0.40507042      -0.78552598      -9.24736214
C        8.09944214       7.66526669      17.87817286  T       1.20125740      -0.28939174      -0.24013971      -0.00064301      -0.08050027       0.01337862      -9.13353920
O        6.85660957       7.48986318      18.16025037  T       1.44408402       1.94143656       0.78246245       0.00860023      -0.05997320       0.01843542      -6.75212908
H        8.75367446       8.00031765      18.70197552  T       0.95719235      -0.63977213       0.51111269       0.03122908      -0.05631626      -0.04463693      -3.60585356
