87
Lattice="13.315120697021484 -0.0 -8.000000134899068e-16 -1.2000000467046398e-15 7.687488555908203 -2.748189687728882 -0.0 3.700000002833815e-15 30.230087280273438" Properties=species:S:1:pos:R:3:move_mask:L:1:momenta:R:3:forces:R:3:energies:R:1 adsorbate_info="_JSON {\"site\": {\"coordinates\": [4.4135553849999996, 3.854305505, 17.274335860000004], \"connectivity\": 2, \"topology\": [36, 44], \"n_vector\": [0.4964293081025187, 0.45135853612785826, 0.741507527892584], \"h_vector\": [0.10357369420059945, 0.8787107491038749, -0.4659827349580107], \"site_formula\": {\"N\": 2}}, \"smiles\": \"S1S\", \"mdf\": 1.4131608983626016, \"adsorbate_formula\": \"CHO\"}" bond_change_count=0 energy=-770.4230346679688 stress="0.0005169497453607619 1.9726941900444217e-05 4.125633950025076e-06 1.9726941900444217e-05 0.0003770387265831232 -2.9486383937182836e-05 4.125633950025076e-06 -2.9486383937182836e-05 0.00035976056824438274" free_energy=-770.4230346679688 pbc="T T F"
Cr       3.56698720       4.10248717      15.24825285  T      -0.98081568      -0.53176104       1.53943620       0.02749836       0.05449203      -0.02592781     -10.23869324
Cr      10.13013550       0.12663761      17.92241140  T      -1.70737317       0.16026785      -0.68128654      -0.03052956       0.04554951       0.00652653      -9.33785248
Cr       0.92184074       4.41273261      15.20510292  T      -2.21178682       0.95991079       0.98593428       0.01110402       0.01059398      -0.00011578     -10.42881870
Cr       7.63739138       0.34434279      17.86977777  T       1.91237157       1.97706104      -0.44795101       0.01927824       0.01689911       0.01444829      -9.57020569
Cr       2.02429226       2.19985087      17.60772224  T      -1.72940055       1.91083680      -3.77173142      -0.05281973       0.05733181       0.05598277      -9.53286266
Cr       8.61670132       5.59872089      15.55278248  T      -1.02235242      -1.69850822       2.69132166       0.03862648       0.03397936      -0.03035739     -10.22182846
Cr       3.03797206       6.52409719      16.40175265  T      -1.87610211      -0.10325457      -2.70257220      -0.00586524       0.00249144       0.03093377      -8.80105114
Cr       9.46795689       2.82645284      16.96334625  T      -1.17129059       1.97157317       2.22464929       0.02641733      -0.02529240      -0.01262647     -10.43932438
Cr       5.60929052       6.46036360      16.42839447  T      -0.34045468      -0.84951926      -2.79966543      -0.05294054       0.00303936       0.06962962      -8.89998722
Cr      12.47054930       2.35610302      16.95152135  T       1.42408546      -1.71827356       2.86531529       0.02083150      -0.00499398       0.02245355     -10.50216579
Cr       4.41843035       1.12011467      16.66452744  T       0.56951698       3.21643609       3.42285579       0.02296644       0.03347135       0.00374171      -9.84744453
Cr      11.37336553       4.76541658      16.47052633  T       1.95175807      -1.94827556      -1.32283004      -0.00068021      -0.02008510       0.03280061      -9.67110157
Cr       3.51657271       4.32285738      12.46500301  F       0.00000000       0.00000000       0.00000000       0.19085795      -0.02284442      -0.07107309     -10.19861126
Cr      10.18600255       0.49538232      15.21553676  T       0.11641032      -0.32818277      -1.11288020       0.01126248       0.01146461       0.01437232     -10.25941277
Cr       0.93565130       4.34684753      12.46500301  F       0.00000000       0.00000000       0.00000000       0.03279027       0.03571898      -0.08130752     -10.29933453
Cr       7.62348103       0.50092718      15.18674719  T      -0.39464123       0.66703415      -0.04769333       0.03135195      -0.01532668      -0.00717580     -10.11163712
Cr       2.05694355       2.05949349      15.10768684  T       0.77998747       0.41081008      -0.70129687       0.01988091      -0.01791185      -0.08394949     -10.15621471
Cr       8.86289692       5.94345331      12.46500301  F       0.00000000       0.00000000       0.00000000       0.05930105      -0.11293542      -0.01317126     -10.30511951
Cr       3.07464013       6.66630406      13.72591946  T      -0.75988506       0.73758050      -1.67469547       0.00583667       0.01716810       0.00807993     -10.20791435
Cr       9.78174603       2.87032078      13.87608327  T      -1.45188798      -0.92558866      -0.65179901       0.01176500      -0.01181468       0.00114007     -10.23370934
Cr       5.72288983       6.61003829      13.72373521  T       0.36044101      -1.40917313      -1.60026888      -0.00376594       0.02079391      -0.02786170     -10.08278656
Cr      12.38436887       2.77283176      13.85955298  T      -0.52942006      -0.34724779      -0.47242100      -0.00874439       0.01133293      -0.00770226     -10.27799034
Cr       4.48877891       1.19370812      13.71679866  T       1.34093624       0.38968591       0.10332527      -0.02998173       0.00664195       0.04024287     -10.39887428
Cr      11.04727531       5.05063668      13.78205017  T      -0.08771989       0.22403135      -0.03083037      -0.00140804      -0.00019929       0.00089203     -10.26135826
Cr       3.51657271       4.32285738       9.71681404  F       0.00000000       0.00000000       0.00000000      -0.08332978       0.92452401       0.87922359      -8.79679871
Cr      10.17413330       0.47911340      12.46500301  F       0.00000000       0.00000000       0.00000000       1.96301579      -0.28015852      -0.23993024     -10.06955814
Cr       0.93565130       4.34684753       9.71681404  F       0.00000000       0.00000000       0.00000000       0.66300023       2.14137888       1.31033170      -8.67134476
Cr       7.59321165       0.50310314      12.46500301  F       0.00000000       0.00000000       0.00000000      -2.50905108       1.03159237      -1.26213992     -10.14390469
Cr       2.20533633       2.09970903      12.46500301  F       0.00000000       0.00000000       0.00000000      -0.41975766      -1.86690688      -2.37922311     -10.46002865
Cr       8.86289692       5.94345331       9.71681404  F       0.00000000       0.00000000       0.00000000      -0.94108272      -0.42588300       1.53474796      -8.98231030
Cr       3.14098763       6.70049572      11.09090900  F       0.00000000       0.00000000       0.00000000      -0.53171831      -0.07080819      -1.76664317     -10.45000839
Cr       9.79854774       2.85675168      11.09090900  F       0.00000000       0.00000000       0.00000000      -0.58719152      -0.57971025       1.52163243      -8.89519787
Cr       5.72190905       6.67650604      11.09090900  F       0.00000000       0.00000000       0.00000000       0.46055883      -0.58796990      -1.64838123     -10.49600124
Cr      12.37946892       2.83276200      11.09090900  F       0.00000000       0.00000000       0.00000000      -0.06635503      -1.31419289       1.66740191      -8.98797417
Cr       4.45222378       1.23615611      11.09090900  F       0.00000000       0.00000000       0.00000000       0.95965731      -1.40439570       1.55954683      -9.36745834
Cr      11.10978413       5.07990026      11.09090900  F       0.00000000       0.00000000       0.00000000       0.40144050       2.12348604      -0.08534102      -9.88097858
N        3.66059711       2.34538334      18.33280756  T      -1.15206631       0.53994022      -0.73710797      -0.04884394      -0.05753627      -0.03781577      -8.44023800
N       10.90012780       6.24045322      15.38780404  T      -0.02773331      -0.28651136       0.16666423       0.00275285       0.04022333       0.01590489      -8.57533646
N        1.87842313       6.07323168      15.14658261  T       0.20109097       0.49284950       0.11971366       0.04453298      -0.00182278      -0.00522888      -8.29531193
N        8.55817700       1.92775191      18.06246488  T       0.31605598      -0.64112794      -0.69379640       0.00686662       0.03191429      -0.00674874      -7.77487659
N        0.32191479       1.94028296      18.11982140  T       0.96224556      -0.51664059      -1.00164394       0.00373709       0.04517263      -0.01416636      -7.68994522
N        6.80594278       5.92506349      15.18526954  T      -0.28957391       0.35054616       0.25836938       0.03447944       0.00100687      -0.02115677      -8.74566746
N        2.41899747       0.80973688      16.52771718  T       0.53262252       0.31398083       0.31428422       0.01966657      -0.08089744       0.00037372      -8.60084534
N        8.68954540       4.34240704      16.69735813  T       0.27783599      -0.14254272      -1.41624918      -0.00876600       0.02437701       0.02544856      -8.06001377
N        4.40653749       5.16937204      16.60598908  T      -0.71454694       2.01653182      -2.88125755       0.03355750      -0.00900328       0.00105995      -7.99651337
N       11.28730568       1.02795357      16.74569531  T      -0.11530843      -0.18374112       0.15857701      -0.01909238      -0.01932122       0.00258445      -8.45345211
N        6.32708677       0.81336938      16.62834525  T       0.27818865      -0.48730134       0.15939770       0.01074015       0.00946626       0.05010536      -8.56824398
N       13.03752485       4.87385306      16.49537354  T      -0.86192489      -0.23086819      -1.38216721      -0.00960830      -0.00652826       0.00987262      -7.61350822
N        4.38378553       7.48470097      15.54578132  T       0.03443698       0.41841055       0.36826967       0.01974496       0.02614218      -0.00778051      -8.56788349
N       11.09685505       3.44856767      17.75713768  T       0.28354792       0.52311568      -1.88048290       0.00158169       0.04167020      -0.01873636      -7.57501125
N        2.17423652       3.59140264      16.44538235  T       0.25157273      -0.65490923      -1.31204060      -0.01016356       0.06744584       0.00868851      -8.31079769
N        8.76255926       7.23689044      16.43624760  T      -0.05262825       0.18083648      -2.54809464       0.00619283       0.03894928       0.00381505      -7.41197109
N        4.30961924       2.44282378      15.27477491  T      -0.76058332      -0.37449240       0.07889087       0.04371718      -0.00227830      -0.01917238      -8.14743328
N       10.91840553       6.40247297      12.46500301  F       0.00000000       0.00000000       0.00000000      -0.02814740      -0.93883038      -0.27809709      -8.28766441
N        2.09129524       5.87347078      12.46500301  F       0.00000000       0.00000000       0.00000000       0.16867696       0.02824759      -0.61474764      -8.39180470
N        8.88875387       1.97455798      15.28839297  T       0.53859127       0.00927221      -0.20001893       0.02314627       0.01173125      -0.01526732      -8.37964153
N        0.20096731       2.27118800      15.24786119  T      -0.75511123       0.91290763      -0.21930904       0.00455436       0.03350347      -0.01435347      -8.28603268
N        6.96297979       6.18095827      12.46500301  F       0.00000000       0.00000000       0.00000000      -0.31662828       0.05448648      -0.25331950      -8.34331322
N        2.46969796       0.82358020      13.80219829  T       0.56470404       0.71682126      -0.04337518       0.01475641       0.02966821       0.04275215      -8.43775940
N        9.09994961       4.68514240      13.89123416  T       0.12806116       0.68983296      -0.17337001      -0.00531071       0.04549576       0.01427511      -8.31130028
N        4.37276369       5.22878904      13.89845671  T      -1.06013747       0.02585912      -0.06989191       0.00092408       0.00453706      -0.04340749      -8.50689983
N       11.14399159       1.27008893      13.80444773  T      -0.96516882      -0.20146830      -0.43236838       0.00423214      -0.01286376       0.00319877      -8.40055466
N        6.42812941       0.95182856      13.81682334  T       0.89870876      -0.40954870      -0.49923852      -0.01585867      -0.02359062       0.01078483      -8.45171928
N       13.03004848       4.75414589      13.79162758  T       0.16009461      -0.53241041      -0.33049491       0.00139697       0.01093605       0.02776459      -8.16975403
N        4.43837357       7.43354893      12.46500301  F       0.00000000       0.00000000       0.00000000      -0.17891791      -0.03613530       0.44353080      -9.01301193
N       11.11254317       3.57050258      15.10394880  T       0.05202260      -0.01979377      -0.83583729       0.01699617      -0.01620441       0.03865176      -8.74568939
N        2.22514202       3.58262107      13.82827890  T       0.25267779       0.11406888      -0.18811752      -0.00457634      -0.03051483      -0.02460079      -8.97989750
N        8.85358242       7.40747020      13.83577550  T      -0.16579237       0.11464819      -0.13170140       0.05367955       0.03695042      -0.01667398      -9.04949379
N        4.26084566       2.55872869      12.46500301  F       0.00000000       0.00000000       0.00000000      -0.05460906      -0.47936568      -0.63875151      -8.55284882
N       10.91840553       6.40247297       9.71681404  F       0.00000000       0.00000000       0.00000000      -1.79063547      -0.23044801       0.75204456      -7.57919359
N        2.09129524       5.87347078       9.71681404  F       0.00000000       0.00000000       0.00000000       0.40689176      -2.36831880       0.89693046      -7.44468451
N        8.74885559       2.02972674      12.46500301  F       0.00000000       0.00000000       0.00000000       0.74589092      -0.14808565      -0.82248241      -8.63428974
N        0.30541945       2.33721423      12.46500301  F       0.00000000       0.00000000       0.00000000      -0.53432655       0.43866709      -0.59333760      -8.42864037
N        6.96297979       6.18095827       9.71681404  F       0.00000000       0.00000000       0.00000000       1.62602830       0.93897980       0.49534839      -7.35897350
N        2.39671469       0.77713639      11.09090900  F       0.00000000       0.00000000       0.00000000       2.16362548       2.28133011       1.87658930      -5.72662878
N        9.05427456       4.62088060      11.09090900  F       0.00000000       0.00000000       0.00000000       0.39959240       0.24860342      -0.88333291      -8.84243202
N        4.56626511       5.14988232      11.09090900  F       0.00000000       0.00000000       0.00000000      -0.56592780      -0.44243011      -0.25861010      -8.52159595
N       11.22382545       1.30613840      11.09090900  F       0.00000000       0.00000000       0.00000000      -0.58912945       1.64839554       0.43152171      -7.67832136
N        6.35214090       0.99865079      11.09090900  F       0.00000000       0.00000000       0.00000000      -1.17502058      -0.33913648       1.58366632      -6.76579285
N       13.00970078       4.84239483      11.09090900  F       0.00000000       0.00000000       0.00000000      -0.03521845      -1.25292003      -0.77732205      -8.85905075
N        4.43837357       7.43354893       9.71681404  F       0.00000000       0.00000000       0.00000000      -0.13735674       0.82053685       0.89177537      -7.68700266
N       11.09593391       3.58980465      12.46500301  F       0.00000000       0.00000000       0.00000000      -0.13255376      -0.26429370      -1.65276718      -9.26316261
N        2.21918678       3.58980465      11.09090900  F       0.00000000       0.00000000       0.00000000      -0.06522431       0.40281257      -0.82593226      -8.86456490
N        8.87674713       7.43354893      11.09090900  F       0.00000000       0.00000000       0.00000000       0.12039532      -0.38125506      -0.92934066      -9.23378658
C        4.35506946       3.02920951      19.23737981  T      -2.01366668      -3.89173286       1.02239260       0.02349973       0.01669204       0.06978941      -9.36343956
O        3.88808051       3.75158418      20.14120702  T       0.75432321      -1.48355493       2.23314276       0.06473851      -0.04244530       0.00330567      -6.07063437
H        5.46314835       2.88868118      19.12729301  T      -0.45693347      -0.10670491       0.44409954       0.00709996      -0.01423690       0.04216516      -3.48017740
