87
Lattice="13.315120697021484 -0.0 -8.000000134899068e-16 -1.2000000467046398e-15 7.687488555908203 -2.748189687728882 -0.0 3.700000002833815e-15 30.230087280273438" Properties=species:S:1:pos:R:3:move_mask:L:1:momenta:R:3:forces:R:3:energies:R:1 adsorbate_info="_JSON {\"site\": {\"coordinates\": [9.633021353333334, 3.4134706633333334, 17.50335184666667], \"connectivity\": 3, \"topology\": [39, 43, 49], \"n_vector\": [-0.4571989015936695, 0.5364756041408759, 0.7093398977522866], \"h_vector\": [0.10357352607078361, 0.8787107816915288, -0.46598271087705295], \"site_formula\": {\"N\": 3}}, \"smiles\": \"S1S\", \"mdf\": 1.1791006912779323, \"adsorbate_formula\": \"CHO\"}" bond_change_count=0 energy=-768.5045166015625 stress="0.0005663440097123384 1.8922602976090275e-05 3.357287641847506e-05 1.8922602976090275e-05 0.00040441524470224977 -9.077301001525484e-06 3.357287641847506e-05 -9.077301001525484e-06 0.00038659581332467496" free_energy=-768.5045166015625 pbc="T T F"
Cr       3.65691801       4.08631733      15.25988529  T       0.22288383      -1.03594670       1.46403882      -0.01212513      -0.01310077       0.01906358     -10.20140743
Cr      10.14588033       0.17913670      17.92293794  T       0.21490361      -1.10350678      -1.22235525       0.01065448       0.04617181      -0.04705229      -9.32949638
Cr       0.96616117       4.47088472      15.21521483  T      -0.77329218       0.60254255       2.77033211      -0.01419052      -0.00587621       0.00811997     -10.44200706
Cr       7.65504832       0.37786357      17.86589234  T       2.46947528      -0.12898661      -0.98395982       0.03357605       0.00071764       0.00606704      -9.57492828
Cr       2.15539299       2.22411618      17.57807997  T      -1.87172097       2.80837706      -3.96946137      -0.03477925       0.03834749       0.03881526      -9.83366394
Cr       8.68194838       5.65630832      15.57631893  T      -0.68109629      -1.25611348       2.76986786      -0.02976938       0.00628048      -0.05478996     -10.23892403
Cr       3.10433290       6.45897924      16.41943679  T      -0.22669873      -0.09207057      -0.57163620      -0.03592629      -0.02384658      -0.05824184      -8.85538483
Cr       9.53299541       2.84255374      16.91973384  T      -0.19067570      -0.57266492       0.16727679       0.05163527       0.01108694       0.00124979     -10.42582703
Cr       5.67434243       6.49014861      16.45931844  T      -1.18902349      -2.89314661      -2.32244824      -0.03220836      -0.08257836       0.00964388      -8.96896458
Cr      12.53959254       2.38619287      16.96395539  T       2.77204344      -1.01268769       3.11501805      -0.04646815       0.03673539       0.01743752     -10.45183372
Cr       4.42869646       1.14988897      16.75794685  T       0.71708733       1.58794137       3.64991726       0.01060298       0.04188877      -0.02284174     -10.02930832
Cr      11.40633532       4.79647512      16.47155967  T       0.77976059      -1.99152212      -0.61532949       0.00898266      -0.07327649       0.05426651      -9.66277885
Cr       3.51657271       4.32285738      12.46500301  F       0.00000000       0.00000000       0.00000000       0.25299299       0.00013403      -0.06284626     -10.21910095
Cr      10.20764681       0.50619812      15.23880821  T       0.29432351      -0.14354668       0.17657302       0.03698659       0.00625007       0.00107263     -10.25437641
Cr       0.93565130       4.34684753      12.46500301  F       0.00000000       0.00000000       0.00000000       0.07114145       0.06498057      -0.05004540     -10.30792236
Cr       7.63595688       0.50745620      15.19655330  T      -0.59187173       0.21401991      -0.35670792      -0.01227692      -0.00069660      -0.04431935     -10.11360359
Cr       2.06824104       2.09004547      15.09531845  T       1.01325664      -0.09272619      -0.66547003      -0.02441701      -0.01693016      -0.03032777     -10.18214703
Cr       8.86289692       5.94345331      12.46500301  F       0.00000000       0.00000000       0.00000000       0.07860160      -0.05809027      -0.00446282     -10.29716206
Cr       3.08119907       6.67911071      13.71738194  T       0.64086833      -0.59648607      -1.24015429       0.00497234       0.00366000      -0.00780914     -10.22874928
Cr       9.79890678       2.87552074      13.87716000  T      -1.23747803       0.03400102       1.67575675       0.00921249       0.02764437      -0.02043051     -10.23867130
Cr       5.73195469       6.63942503      13.71891010  T       0.47702754      -1.48866429      -1.30059754       0.00141266       0.00645262       0.00400932     -10.11233902
Cr      12.39131153       2.80212862      13.85619075  T      -0.20965823      -1.09163920       0.24006409       0.00630113      -0.02542055       0.00806555     -10.28194046
Cr       4.48558168       1.18751585      13.72233900  T       0.43162110       0.56735776      -0.11448591       0.00101581      -0.01680830       0.02721688     -10.43132877
Cr      11.06008741       5.06010521      13.78604649  T       0.24802574      -0.79053544      -0.42514899      -0.00852358      -0.00866064       0.02143829     -10.25542068
Cr       3.51657271       4.32285738       9.71681404  F       0.00000000       0.00000000       0.00000000      -0.08323345       0.93103772       0.89092755      -8.79726791
Cr      10.17413330       0.47911340      12.46500301  F       0.00000000       0.00000000       0.00000000       1.96552670      -0.26324371      -0.17708942     -10.07382298
Cr       0.93565130       4.34684753       9.71681404  F       0.00000000       0.00000000       0.00000000       0.66882372       2.14270663       1.30474699      -8.67083263
Cr       7.59321165       0.50310314      12.46500301  F       0.00000000       0.00000000       0.00000000      -2.47435164       1.01798666      -1.24573207     -10.15892124
Cr       2.20533633       2.09970903      12.46500301  F       0.00000000       0.00000000       0.00000000      -0.42331502      -1.81901336      -2.41560650     -10.45051861
Cr       8.86289692       5.94345331       9.71681404  F       0.00000000       0.00000000       0.00000000      -0.95132726      -0.40248090       1.56144249      -8.98580837
Cr       3.14098763       6.70049572      11.09090900  F       0.00000000       0.00000000       0.00000000      -0.47324884      -0.05800224      -1.72796106     -10.44179821
Cr       9.79854774       2.85675168      11.09090900  F       0.00000000       0.00000000       0.00000000      -0.60716426      -0.59628564       1.54076684      -8.89956856
Cr       5.72190905       6.67650604      11.09090900  F       0.00000000       0.00000000       0.00000000       0.43987146      -0.54658961      -1.60696387     -10.50777245
Cr      12.37946892       2.83276200      11.09090900  F       0.00000000       0.00000000       0.00000000      -0.06054329      -1.33416069       1.67563486      -8.98824310
Cr       4.45222378       1.23615611      11.09090900  F       0.00000000       0.00000000       0.00000000       0.97628140      -1.39368069       1.59527493      -9.37258720
Cr      11.10978413       5.07990026      11.09090900  F       0.00000000       0.00000000       0.00000000       0.40162522       2.13494182      -0.09101516      -9.88329887
N        3.72210212       2.14590014      18.20564344  T      -2.47599699      -2.56574311      -0.89412136       0.04170543      -0.01006988       0.02951062      -7.05768919
N       10.89334472       6.26858036      15.40971886  T       0.73838178      -0.52239559       0.19883391       0.03323408      -0.03225878      -0.04748231      -8.58123684
N        1.90397083       6.13020831      15.15763416  T       0.62076438       0.50560066       0.42416685       0.06217766      -0.02384436       0.03565180      -8.26971245
N        8.61719348       1.96829721      18.03559851  T       0.67826686      -1.48213276      -0.80499610      -0.01022831      -0.02843213       0.01079005      -7.76707506
N        0.42200305       2.01848767      18.10511341  T       1.52483423       0.00810928      -1.60153200      -0.00567365      -0.00260955       0.00532174      -7.66251135
N        6.85660787       6.00837282      15.18266264  T      -0.42072487       0.26583894       0.52216807       0.03062645       0.02072182       0.01397571      -8.72396374
N        2.39791914       0.80287948      16.47385960  T       0.41667515       0.01515404       0.43889237       0.00178683      -0.06529757       0.01631837      -8.44313145
N        8.77015353       4.39966271      16.71246497  T       1.93248107       0.15627517      -2.85390621      -0.01671135      -0.03074823       0.00162351      -7.94995975
N        4.53870616       5.12876996      16.56963670  T      -0.85009404       1.88806808      -0.65714272      -0.04207307       0.05766505      -0.04130703      -8.05751228
N       11.31599607       1.05460652      16.75200167  T      -0.64996762      -0.31691759       0.21810402      -0.01887083       0.00256830      -0.00542806      -8.45261192
N        6.33497548       0.82899043      16.63420482  T       0.18392379      -0.63512763       0.15956386      -0.04506826      -0.01909956      -0.00403832      -8.59052086
N       13.07365622       4.91660498      16.48998810  T      -0.43610986      -0.16522764      -1.39682297      -0.03830397      -0.01478034      -0.00600755      -7.63367128
N        4.40773176       7.46532703      15.59615309  T       0.06384361      -0.38198363       0.81795337      -0.01316895      -0.00366527      -0.04012750      -8.65630245
N       11.14291503       3.48309734      17.76136637  T       0.42543151       0.39438731      -1.91948632      -0.00057579       0.00227863      -0.07369721      -7.53632593
N        2.22815518       3.66595528      16.43736247  T       0.30204215      -0.19050724      -1.32307553      -0.00773827      -0.02292863      -0.02767009      -8.36778641
N        8.78791454       7.31545477      16.45054339  T       0.06678645       0.11412718      -2.17929712       0.01242463      -0.00502419       0.00217080      -7.34160137
N        4.35791783       2.43097386      15.26364266  T      -0.11692120      -1.01061624      -0.08428404      -0.02330577       0.03402352      -0.00599091      -8.14952183
N       10.91840553       6.40247297      12.46500301  F       0.00000000       0.00000000       0.00000000      -0.00833154      -0.85400248      -0.27342281      -8.30526733
N        2.09129524       5.87347078      12.46500301  F       0.00000000       0.00000000       0.00000000       0.21721537       0.06480201      -0.59834206      -8.39322662
N        8.89878875       1.99080553      15.28744792  T       0.44375265       0.00030895       0.06783458      -0.01024744      -0.01221868      -0.05077000      -8.37924767
N        0.21880689       2.31757794      15.24921713  T      -0.34436925       0.77706185      -0.45627122       0.01400342       0.00310594       0.00634465      -8.30699062
N        6.96297979       6.18095827      12.46500301  F       0.00000000       0.00000000       0.00000000      -0.22674893       0.07463431      -0.21517558      -8.34560871
N        2.48173269       0.83835264      13.80846225  T       0.34469509       0.62922724       0.05105953      -0.01142770      -0.01677105      -0.00001612      -8.44500351
N        9.12427975       4.71677793      13.91298795  T       0.17517185       0.81514383       0.02140461      -0.03244510      -0.01697853      -0.03305644      -8.28291416
N        4.38877832       5.24112108      13.89087709  T      -0.91825452      -0.03234571       0.04031492      -0.00170308       0.00817063      -0.01124826      -8.48568535
N       11.13790242       1.28589088      13.81009622  T      -0.81325080      -0.13786792      -0.36619498       0.02243999       0.00249620      -0.02708659      -8.38092136
N        6.43315048       0.93804169      13.82081742  T       0.71311213      -0.73629720      -0.23631439      -0.01471150       0.00988060       0.01715733      -8.43770027
N       13.04355843       4.76619389      13.80184821  T       0.42439963      -0.88526756      -0.10743810       0.01127850      -0.00563741      -0.02593936      -8.17764568
N        4.43837357       7.43354893      12.46500301  F       0.00000000       0.00000000       0.00000000      -0.06765281       0.02512584       0.40366682      -8.93377113
N       11.12809182       3.58731139      15.11240617  T      -0.06159411      -0.01356347      -0.66012707      -0.02797288      -0.00652405       0.03257111      -8.75065231
N        2.24952735       3.59771344      13.82695886  T       0.14754415       0.30472951      -0.21941089      -0.04786112      -0.03457199      -0.01968156      -8.95427895
N        8.88066398       7.43233091      13.83374041  T       0.33948522      -0.17212981      -0.22221859      -0.03942087      -0.02681951      -0.04015225      -9.05639648
N        4.26084566       2.55872869      12.46500301  F       0.00000000       0.00000000       0.00000000      -0.04955885      -0.50443655      -0.64062661      -8.52125359
N       10.91840553       6.40247297       9.71681404  F       0.00000000       0.00000000       0.00000000      -1.79709232      -0.21301806       0.76704454      -7.58255386
N        2.09129524       5.87347078       9.71681404  F       0.00000000       0.00000000       0.00000000       0.40814820      -2.35702443       0.90957999      -7.44770956
N        8.74885559       2.02972674      12.46500301  F       0.00000000       0.00000000       0.00000000       0.79882842      -0.10278119      -0.77926636      -8.61776352
N        0.30541945       2.33721423      12.46500301  F       0.00000000       0.00000000       0.00000000      -0.50333011       0.46297824      -0.57085556      -8.44004726
N        6.96297979       6.18095827       9.71681404  F       0.00000000       0.00000000       0.00000000       1.64672256       0.93896449       0.48999250      -7.35185909
N        2.39671469       0.77713639      11.09090900  F       0.00000000       0.00000000       0.00000000       2.15982866       2.30145001       1.89295578      -5.72668076
N        9.05427456       4.62088060      11.09090900  F       0.00000000       0.00000000       0.00000000       0.39665127       0.26750714      -0.83356214      -8.84862137
N        4.56626511       5.14988232      11.09090900  F       0.00000000       0.00000000       0.00000000      -0.57477713      -0.43668312      -0.30286461      -8.52013111
N       11.22382545       1.30613840      11.09090900  F       0.00000000       0.00000000       0.00000000      -0.58379197       1.65712547       0.44547462      -7.67923927
N        6.35214090       0.99865079      11.09090900  F       0.00000000       0.00000000       0.00000000      -1.18717384      -0.33908543       1.58725131      -6.76287794
N       13.00970078       4.84239483      11.09090900  F       0.00000000       0.00000000       0.00000000      -0.02710105      -1.25281799      -0.75905645      -8.85665131
N        4.43837357       7.43354893       9.71681404  F       0.00000000       0.00000000       0.00000000      -0.14725694       0.77727968       0.90015340      -7.68577433
N       11.09593391       3.58980465      12.46500301  F       0.00000000       0.00000000       0.00000000      -0.08659309      -0.15351246      -1.57735682      -9.28522015
N        2.21918678       3.58980465      11.09090900  F       0.00000000       0.00000000       0.00000000      -0.06810083       0.40413988      -0.82846272      -8.86319160
N        8.87674713       7.43354893      11.09090900  F       0.00000000       0.00000000       0.00000000       0.17087410      -0.35478258      -0.91101831      -9.19901276
C        8.75046308       4.27187254      20.02006341  T      -0.34819066       0.63507369       1.06432100      -0.04626614       0.03396624       0.02552715      -5.89709949
O        7.95428691       5.09292555      20.17733194  T      -1.28826612       1.69427302       3.49407584       0.03651381      -0.03401536       0.03882554      -8.56513882
H        9.52517163       3.44576319      20.24142058  T      -0.66649488      -0.56304534      -0.30811645       0.01047434       0.05327418       0.00007837      -3.60911059
