87
Lattice="13.315120697021484 -0.0 -8.000000134899068e-16 -1.2000000467046398e-15 7.687488555908203 -2.748189687728882 -0.0 3.700000002833815e-15 30.230087280273438" Properties=species:S:1:pos:R:3:move_mask:L:1:momenta:R:3:forces:R:3:energies:R:1 adsorbate_info="_JSON {\"site\": {\"coordinates\": [1.2553778899999997, 2.21846163, 17.961383820000002], \"connectivity\": 2, \"topology\": [4, 40], \"n_vector\": [0.04941633207447507, 0.17497315735752003, 0.9833323041213717], \"h_vector\": [0.9922768745583174, -0.1240427515688728, 0.0], \"site_formula\": {\"Cr\": 1, \"N\": 1}}, \"smiles\": \"S1S\", \"mdf\": 0.5002147606863621, \"adsorbate_formula\": \"CHO\"}" bond_change_count=0 energy=-770.1524047851562 stress="0.0005270674591884017 2.3936101570143364e-05 2.4325989215867594e-05 2.3936101570143364e-05 0.000399210664909333 -1.5035106116556562e-05 2.4325989215867594e-05 -1.5035106116556562e-05 0.00038667849730700254" free_energy=-770.1524047851562 pbc="T T F"
Cr       3.63033175       4.10401964      15.24383085  T       0.90610767      -1.44508455       0.70630840      -0.04698187      -0.03083524      -0.02293292     -10.23913956
Cr      10.12110125       0.16856680      17.90748717  T      -0.35807046      -0.30012890      -0.88100213       0.01317710       0.05350330       0.01465839      -9.34622097
Cr       0.94668564       4.45238197      15.21845058  T      -0.94498263       0.02976758       1.21598307       0.01991093      -0.02571812       0.00968316     -10.39914131
Cr       7.64317332       0.35809558      17.87296016  T       1.54279589       2.13767085      -0.38643242      -0.02807249       0.03340834      -0.00570989      -9.56153107
Cr       2.29836905       2.26176906      17.62017486  T       3.45020522       1.86599522      -5.66633676      -0.07110023      -0.00974312       0.00320894      -9.69566154
Cr       8.63607565       5.64323212      15.55737490  T      -0.41194768      -1.13599164       1.92721699      -0.00010362      -0.09149918       0.01956779     -10.21852684
Cr       3.09885275       6.51979920      16.39967253  T      -2.12511135       0.23155130      -1.13165916       0.01276323      -0.01085806      -0.00985548      -8.79391384
Cr       9.45923506       2.85487499      16.95527769  T      -0.72049969       0.95834284       2.15114934      -0.04655151       0.02890287       0.02114338     -10.46304607
Cr       5.66184289       6.48624152      16.47288181  T      -1.51070779      -1.96086984      -2.62828238       0.02314436       0.00333795      -0.06790110      -8.98637962
Cr      12.43076732       2.47396618      16.92402126  T       0.38446617       0.76141379       0.96169641       0.05604880       0.00653505      -0.01423547     -10.22344589
Cr       4.48746150       1.19172071      16.69071278  T       2.06305877       1.16593190       0.79705219       0.03409734      -0.00943571      -0.01017913     -10.06474495
Cr      11.35806178       4.80299373      16.46298859  T       1.37021179      -1.18896088      -1.68063685       0.02078818       0.04883972      -0.02877957      -9.61905098
Cr       3.51657271       4.32285738      12.46500301  F       0.00000000       0.00000000       0.00000000       0.20178598      -0.03476522      -0.07621536     -10.21333790
Cr      10.19612621       0.51396801      15.22428942  T      -0.24601745      -0.42117415       0.34226498      -0.00817657      -0.02874181      -0.01220215     -10.25062656
Cr       0.93565130       4.34684753      12.46500301  F       0.00000000       0.00000000       0.00000000       0.07936946       0.03903455      -0.06287231     -10.30248451
Cr       7.63865869       0.51308122      15.17896947  T      -0.63081749       0.34015310      -0.32829843      -0.00259319      -0.02744073      -0.00947180     -10.11630154
Cr       2.02046220       2.08381734      15.12029604  T       0.31028391       0.51953536      -0.05102605       0.03950426      -0.02007169      -0.01774982     -10.14644241
Cr       8.86289692       5.94345331      12.46500301  F       0.00000000       0.00000000       0.00000000       0.04671076      -0.07320154      -0.03803012     -10.30115891
Cr       3.07720387       6.69509343      13.71426075  T       0.00376057      -0.14935149      -1.35152224      -0.00490344      -0.00666153      -0.00858185     -10.21251392
Cr       9.79392023       2.87920285      13.87267122  T      -0.73238883      -0.44784614       0.67064525      -0.01730031      -0.02469865       0.01388650     -10.24212360
Cr       5.72240720       6.64570272      13.71409443  T      -0.70705967      -0.41053565      -0.50973628       0.04679146      -0.02380234       0.02426492     -10.11104870
Cr      12.39346900       2.79376129      13.85952963  T       1.03767427      -0.05652160      -0.44011259       0.01977161       0.01378053      -0.00345747     -10.29169083
Cr       4.47348123       1.19621728      13.73116176  T      -0.36954430      -0.04686582      -0.95057579       0.00789276      -0.04131871      -0.02138186     -10.43308830
Cr      11.04937479       5.06002608      13.78827867  T      -0.46083420      -0.12628831       0.91069016       0.00896508      -0.01286101       0.00626891     -10.25523758
Cr       3.51657271       4.32285738       9.71681404  F       0.00000000       0.00000000       0.00000000      -0.08622485       0.92991918       0.88897443      -8.79798508
Cr      10.17413330       0.47911340      12.46500301  F       0.00000000       0.00000000       0.00000000       1.99520767      -0.25637588      -0.19887307     -10.06951523
Cr       0.93565130       4.34684753       9.71681404  F       0.00000000       0.00000000       0.00000000       0.67053819       2.14769721       1.31181502      -8.67225456
Cr       7.59321165       0.50310314      12.46500301  F       0.00000000       0.00000000       0.00000000      -2.50791502       1.01906228      -1.27314997     -10.15231323
Cr       2.20533633       2.09970903      12.46500301  F       0.00000000       0.00000000       0.00000000      -0.42066383      -1.87147999      -2.35688496     -10.46425056
Cr       8.86289692       5.94345331       9.71681404  F       0.00000000       0.00000000       0.00000000      -0.94166279      -0.42252636       1.54065406      -8.98334503
Cr       3.14098763       6.70049572      11.09090900  F       0.00000000       0.00000000       0.00000000      -0.50731850       0.01616199      -1.73766446     -10.43795395
Cr       9.79854774       2.85675168      11.09090900  F       0.00000000       0.00000000       0.00000000      -0.59524864      -0.59259248       1.53110170      -8.89850044
Cr       5.72190905       6.67650604      11.09090900  F       0.00000000       0.00000000       0.00000000       0.44645602      -0.54007572      -1.62265491     -10.50384235
Cr      12.37946892       2.83276200      11.09090900  F       0.00000000       0.00000000       0.00000000      -0.06599791      -1.33110261       1.67816687      -8.99139118
Cr       4.45222378       1.23615611      11.09090900  F       0.00000000       0.00000000       0.00000000       0.98237002      -1.41305947       1.62930775      -9.37661362
Cr      11.10978413       5.07990026      11.09090900  F       0.00000000       0.00000000       0.00000000       0.41019419       2.13826966      -0.07987359      -9.88827229
N        3.91582770       2.23326863      18.10857853  T      -2.52488274      -0.86709130      -1.19933103      -0.02155083       0.02003622       0.02282143      -7.06990051
N       10.89749668       6.26952074      15.38309772  T       0.38838852      -0.09636404       0.22602765       0.04233833      -0.01008761      -0.02125772      -8.58288860
N        1.90854502       6.09834110      15.15560552  T       0.51464599       0.59733330       0.38077954      -0.01939768      -0.00399883      -0.00885463      -8.28952217
N        8.56305610       1.95982381      18.06375940  T       0.29157169      -0.24031414      -1.33824935       0.00234962       0.00872898      -0.04107481      -7.74903917
N        0.47254751       2.25410249      18.28749327  T       0.20874993       1.28352082       1.64287806       0.00491810      -0.01370564       0.01338786      -8.41906929
N        6.83110831       5.99980588      15.17597153  T      -0.55457057       0.25683792       0.43179891      -0.01835719       0.00011319       0.05307128      -8.76072598
N        2.39312518       0.83122492      16.52361842  T      -0.29933588      -0.36315193       0.46301890      -0.03108960      -0.05183190       0.01733219      -8.46012020
N        8.66965128       4.37154231      16.69071213  T       0.76041240       0.01193040      -1.47190411       0.05542535       0.03684879      -0.04404902      -8.04152203
N        4.49187203       5.16039558      16.56539335  T      -0.58886718       2.78302711      -0.10917888      -0.01566958       0.03058721       0.00512040      -8.06820488
N       11.29344330       1.09249573      16.76607767  T      -0.53152409      -0.46350175       0.33818978       0.03057879      -0.01565434      -0.02893253      -8.43946171
N        6.35439723       0.83935978      16.61429402  T       0.35935397      -0.49239678       0.26778623      -0.02761073      -0.03193751      -0.01524343      -8.63281250
N       13.03345886       4.86294075      16.49635638  T      -0.80763516      -0.09705616      -1.29232917      -0.01108805       0.01270151      -0.00312573      -7.62692070
N        4.43513394       7.47473609      15.56085626  T       0.09777886      -0.00122344       1.00650354       0.00316089      -0.05351755       0.00198740      -8.57401943
N       11.06294778       3.52052006      17.77298573  T       0.26173307       0.47975406      -1.90404717       0.03238218      -0.01908923       0.02448404      -7.55338097
N        2.21106942       3.63643204      16.43611794  T      -0.08314817      -0.55024392      -1.07380110      -0.02852971      -0.01312453       0.00924796      -8.40347099
N        8.78529459       7.28413242      16.44500638  T       0.11305314       0.32822661      -0.61306664       0.00938415       0.02206473       0.02453494      -7.41137123
N        4.38152142       2.46918810      15.23277249  T       0.30778459      -0.58116326      -0.26432929       0.01501569      -0.01095024       0.02465150      -8.14235306
N       10.91840553       6.40247297      12.46500301  F       0.00000000       0.00000000       0.00000000      -0.01804042      -0.86255693      -0.24222407      -8.28135872
N        2.09129524       5.87347078      12.46500301  F       0.00000000       0.00000000       0.00000000       0.20277531       0.08672333      -0.56224644      -8.39580727
N        8.89511714       1.98687240      15.28200264  T       0.91877500      -0.17033094      -0.01431479       0.01189679       0.01067927       0.00538294      -8.38509464
N        0.18884148       2.26824036      15.28158058  T      -0.41392893       0.47321985      -0.07349079       0.02307669       0.02844983       0.00232604      -8.30190945
N        6.96297979       6.18095827      12.46500301  F       0.00000000       0.00000000       0.00000000      -0.27898639       0.06951073      -0.23189557      -8.32016945
N        2.47671057       0.84564930      13.82732059  T       0.87714645       0.95812842       0.04261078       0.02488220      -0.02573848      -0.05065910      -8.44526768
N        9.11179766       4.70588887      13.90607714  T       0.44366247       0.42643777      -0.04420163       0.01046285      -0.01351115      -0.02497815      -8.31231689
N        4.37629752       5.25060793      13.88408504  T      -0.98833634       0.24075963       0.18407903       0.02261266      -0.02648585       0.01213379      -8.47454929
N       11.14443149       1.28130854      13.80589564  T      -1.05214322      -0.21908129      -0.30700362      -0.01511422      -0.02350932      -0.02732828      -8.38096333
N        6.42744116       0.93734115      13.81498641  T       1.06765586      -1.03900372      -0.29276831       0.02735056       0.01062065      -0.00597184      -8.43167114
N       13.03624068       4.74443125      13.80249692  T       0.43837479      -0.96391349      -0.09550934      -0.00807767       0.02929205       0.01778387      -8.20238686
N        4.43837357       7.43354893      12.46500301  F       0.00000000       0.00000000       0.00000000      -0.14602372       0.14698252       0.33589494      -8.99405193
N       11.11707142       3.57191212      15.12399424  T       0.04179644      -0.14120973      -0.84552186       0.02157676       0.00342418      -0.01829791      -8.74531174
N        2.23592612       3.58532909      13.83128035  T       0.08159512      -0.02247196      -0.25048898      -0.03289278       0.02142019       0.01297958      -8.94355774
N        8.86861221       7.42694801      13.82965624  T      -0.25755881       0.05986222      -0.24705984      -0.01253376       0.03310487      -0.01911324      -9.07227802
N        4.26084566       2.55872869      12.46500301  F       0.00000000       0.00000000       0.00000000      -0.07789022      -0.48767573      -0.66328502      -8.52656364
N       10.91840553       6.40247297       9.71681404  F       0.00000000       0.00000000       0.00000000      -1.79414082      -0.21834160       0.76163447      -7.58216095
N        2.09129524       5.87347078       9.71681404  F       0.00000000       0.00000000       0.00000000       0.40812781      -2.35270357       0.92025220      -7.45087051
N        8.74885559       2.02972674      12.46500301  F       0.00000000       0.00000000       0.00000000       0.77794135      -0.11176835      -0.79798990      -8.62176514
N        0.30541945       2.33721423      12.46500301  F       0.00000000       0.00000000       0.00000000      -0.52767849       0.45087489      -0.55407786      -8.43514633
N        6.96297979       6.18095827       9.71681404  F       0.00000000       0.00000000       0.00000000       1.64111590       0.93841386       0.48763239      -7.35301685
N        2.39671469       0.77713639      11.09090900  F       0.00000000       0.00000000       0.00000000       2.15053844       2.30115795       1.90681505      -5.73078203
N        9.05427456       4.62088060      11.09090900  F       0.00000000       0.00000000       0.00000000       0.39591801       0.26106101      -0.85283864      -8.84596729
N        4.56626511       5.14988232      11.09090900  F       0.00000000       0.00000000       0.00000000      -0.59289193      -0.44517377      -0.28170443      -8.52117157
N       11.22382545       1.30613840      11.09090900  F       0.00000000       0.00000000       0.00000000      -0.58756435       1.65417111       0.44001490      -7.67962933
N        6.35214090       0.99865079      11.09090900  F       0.00000000       0.00000000       0.00000000      -1.19092166      -0.33646345       1.58979750      -6.76006079
N       13.00970078       4.84239483      11.09090900  F       0.00000000       0.00000000       0.00000000      -0.02547309      -1.24955881      -0.75324976      -8.85931301
N        4.43837357       7.43354893       9.71681404  F       0.00000000       0.00000000       0.00000000      -0.18016779       0.79083419       0.88256353      -7.67165279
N       11.09593391       3.58980465      12.46500301  F       0.00000000       0.00000000       0.00000000      -0.08827329      -0.19778195      -1.55850267      -9.27632904
N        2.21918678       3.58980465      11.09090900  F       0.00000000       0.00000000       0.00000000      -0.07249208       0.40128908      -0.80873060      -8.86578465
N        8.87674713       7.43354893      11.09090900  F       0.00000000       0.00000000       0.00000000       0.21213076      -0.36133832      -0.93791306      -9.22877502
C        0.37794828       2.31677273      19.62864391  T       0.14837648      -2.33639849       1.01224156      -0.06868434       0.03926041       0.01396084      -9.35197163
O        1.31683263       2.29325591      20.44552529  T      -1.59851252       0.34376823       3.50060161      -0.04822230      -0.03160754       0.04064965      -6.22710609
H       -0.67449586       2.39590536      20.01045596  T      -0.12319235       0.53829307      -1.41692593       0.02873152      -0.01982548      -0.08696002      -3.52938914
