82
Lattice="15.482664108276367 0.0 9.000000350284799e-16 -3.941528797149658 14.972549438476562 -3.978878974914551 0.0 0.0 31.831031799316406" Properties=species:S:1:pos:R:3:move_mask:L:1:momenta:R:3:forces:R:3:energies:R:1 adsorbate_info="_JSON {\"site\": {\"coordinates\": [1.838887343333338, 2.584885836666667, 16.54550584333333], \"connectivity\": 3, \"topology\": [30, 57, 72], \"n_vector\": [0.15321867057248256, 0.3947749454180726, 0.9059121267861243], \"h_vector\": [0.9983464164731688, -0.057484195351263825, 0.0], \"site_formula\": {\"Co\": 1, \"Y\": 2}}, \"smiles\": \"S1S\", \"mdf\": 1.8622854282325827, \"adsorbate_formula\": \"HN\"}" bond_change_count=0 energy=-534.3292846679688 stress="0.00030503037851303816 7.714174898865167e-06 -2.251928663099534e-06 7.714174898865167e-06 0.0002904851280618459 -7.53610220272094e-05 -2.251928663099534e-06 -7.53610220272094e-05 6.084683263907209e-05" free_energy=-534.3292846679688 pbc="T T F"
Co       2.32928191       8.39983458      12.94188259  T       1.32559265      -0.34343154      -1.50014361      -0.00359751      -0.00839588       0.02599201      -6.55007458
Co      12.11593402       0.95728117      13.09096982  T       0.20195208      -0.19913442       1.02272816      -0.00943187      -0.00665458       0.01203299      -5.67589188
Co       9.69658852      11.82328224      11.24033356  F       0.00000000       0.00000000       0.00000000       0.16828668       0.12463663      -1.01028502      -6.44640207
Co       3.92602110       4.33700800      11.24033356  F       0.00000000       0.00000000       0.00000000      -0.08832452      -0.42451650      -0.01547182      -5.53204441
Co      11.70440102      10.55078983      11.24033356  F       0.00000000       0.00000000       0.00000000      -0.06206622       0.38255560      -0.43225813      -5.67778826
Co       5.93383265       3.06451464      11.24033356  F       0.00000000       0.00000000       0.00000000      -0.13952112       0.49422431       0.23705852      -4.98293257
Co      11.03408416       4.82969550      12.85866984  T       0.13599917      -1.56837908      -2.13520870      -0.01313556       0.00907987       0.02143085      -6.65114546
Co       1.22387576      12.38704586       9.25089359  F       0.00000000       0.00000000       0.00000000       0.16922595       0.58050328       0.35760865      -5.02544260
Co      -0.16326515       4.42176008      11.24033356  F       0.00000000       0.00000000       0.00000000       0.16050139      -0.17541948       0.30915242      -5.24642324
Co       5.60730267      11.90803528      11.24033356  F       0.00000000       0.00000000       0.00000000       0.22927639       0.23931970      -1.05857313      -6.32176495
Co       0.48690655       9.98164057      13.04061309  T       0.15199764      -1.27356743      -1.38620877       0.00674650      -0.01068852      -0.00414092      -6.62051868
Co      10.36473353       2.45302905      12.88541684  T       1.29940716      -0.06818532      -0.82587546       0.00337036       0.01682522       0.00056268      -6.23303127
Co       9.17582532       6.44287142      12.86433676  T      -1.32470971       1.48577234      -2.52090395      -0.01371829       0.00268005       0.00694609      -6.60941601
Co      -0.51783448      14.00475788       9.25089359  F       0.00000000       0.00000000       0.00000000       0.01095946      -0.43003553       0.20955981      -5.39490414
Co       1.84454656       3.14926696      11.24033356  F       0.00000000       0.00000000       0.00000000      -0.01377603       0.90303767      -0.09259112      -5.00613356
Co       7.61511421      10.63554192      11.24033356  F       0.00000000       0.00000000       0.00000000       0.05509762       0.30004698      -0.38578117      -5.79078627
Co       2.43253630       8.43627145      16.80990858  T       1.99708485       1.25023176      -1.45542683      -0.01164960       0.02321205       0.00393027      -5.27475834
Co      12.13930092       0.78437361      17.29490159  T      -0.25674358      -1.01255955       1.82949674      -0.01112515      -0.01410842       0.01383114      -6.30472469
Co       9.67988608      11.63960347      15.22084120  T      -0.85275484      -0.96591809       1.77474463       0.01227870       0.02091835       0.00407409      -5.88186073
Co       4.00098735       4.42253718      15.21784633  T       0.56535369      -1.81566306       2.11355059      -0.00612766       0.00404104       0.00154316      -6.54639769
Co      11.59630770      10.34450122      15.27935305  T       0.28410200      -0.99060681       1.73961660       0.00477409       0.00205805       0.00502585      -6.24380350
Co       6.11694245       3.09607919      15.19815487  T      -0.36617950      -0.12263237       1.92187468       0.00946064      -0.00415470       0.00722156      -6.53650284
Co      10.71746823       4.70443636      16.95545471  T      -0.41187508      -1.48280725      -0.17277937      -0.00007183       0.04650708      -0.02288323      -5.72318411
Co       1.36568086      12.38154632      13.16629062  T      -0.03460311       0.97670991       0.83191774      -0.01019980      -0.01128542      -0.00252488      -6.63799286
Co      -0.30459448       4.39462214      15.27340799  T      -0.30069056       1.26018599       1.45343808      -0.00642999      -0.00195160       0.00658423      -6.49913740
Co       5.63479019      11.92261672      15.15585988  T      -0.45749983       0.23175565       0.73881122      -0.00596435       0.00595421       0.01169950      -5.71739578
Co       0.51694085       9.75486328      16.70965716  T      -0.77599732      -1.19168875      -1.78234936       0.00032803      -0.00295455       0.00166465      -5.24083090
Co      10.49839742       2.43896931      17.18134060  T      -0.32491863      -0.69181012       0.53840036      -0.00470077      -0.05389974       0.01128642      -6.13651323
Co       9.05733936       6.33009978      16.75027379  T       1.28452918       0.23162821       0.13033518       0.02525029       0.02118330      -0.00585406      -5.53608704
Co      -0.55616572      14.05358551      13.27144730  T      -0.03053612       0.99350073       2.17025543      -0.01911319      -0.00670944      -0.00241768      -6.50206470
Co       1.85140985       2.96752737      15.11829772  T      -0.13496343       0.38186950      -0.79494057      -0.01366573      -0.01961525       0.00386667      -6.43652534
Co       7.59562449      10.68562777      15.28250990  T       0.27047606      -0.06512472       1.65603616      -0.00290401      -0.00790055       0.00281523      -6.46380663
Y        9.58961537       9.68673475      13.18312634  T       1.25029226      -0.85995351       0.08130342       0.00841624       0.01160039       0.00832868      -7.50868368
Y        3.74957484       2.01953486      13.12330190  T       0.62923728      -0.04143083      -0.25625569      -0.00121706       0.00065421      -0.01141585      -7.53522444
Y       12.35783672       3.26628304      11.24033356  F       0.00000000       0.00000000       0.00000000       0.33282921      -0.26370507       0.06117956      -6.88964796
Y        2.64574003      10.75255775      11.24033356  F       0.00000000       0.00000000       0.00000000      -0.17029904       0.22285932      -0.06206524      -7.03283405
Y       -2.35288688       9.25778229      13.26773153  T      -0.32411400      -0.07682970       0.52858015       0.00527927      -0.00243396       0.01634751      -6.69605446
Y        7.35576982       1.72453321      13.21970845  T      -0.68747375       0.40310280       0.67141402      -0.00108298      -0.00247639      -0.00390686      -6.65997505
Y       13.83949514       5.60803791      13.26326979  T       0.69307240      -1.31818364       0.04849829      -0.00570554       0.00703618       0.00117848      -6.67452621
Y        4.16964054      13.17344666       9.25089359  F       0.00000000       0.00000000       0.00000000      -0.34432721      -0.46046501       0.54285681      -6.10842466
Y       11.14714432       6.98271179      11.24033356  F       0.00000000       0.00000000       0.00000000       0.20641217       0.11580117      -0.16040695      -6.63865089
Y        1.43504775      14.46898651      11.24033356  F       0.00000000       0.00000000       0.00000000       0.12047933      -0.04363131      -0.00707573      -7.27844667
Y       -0.81670117      11.70626640      11.24033356  F       0.00000000       0.00000000       0.00000000      -0.16650546      -0.02960935      -0.17653200      -7.29932642
Y        8.89539528       4.21999168      11.24033356  F       0.00000000       0.00000000       0.00000000      -0.26155153      -0.16274267      -0.05095303      -6.84206200
Y        3.93658876       7.38591671      11.24033356  F       0.00000000       0.00000000       0.00000000      -0.06159509      -0.60788226      -0.12004847      -6.35044813
Y        9.70715618      14.87219143      11.24033356  F       0.00000000       0.00000000       0.00000000      -0.00384952      -0.45310551       0.05042158      -6.72109604
Y        0.39399123       7.98983765      11.24033356  F       0.00000000       0.00000000       0.00000000      -0.19527742      -0.26629871       0.03372872      -6.71170044
Y       10.17595423       0.38244440      15.17021956  T      -0.69497304       0.03067548      -0.79938395       0.01301245       0.01633069       0.00336107      -7.14652348
Y       -0.13317752       2.27861566      13.21404415  T      -1.18415599       1.10222148       2.15924202       0.01172690       0.00994085       0.00292000      -7.18940544
Y        5.66158195       9.94943973      13.21432633  T       0.70701073       0.97570938       0.37213257      -0.00249665      -0.00773703       0.00904967      -7.19511604
Y       11.65617561      12.55751133       9.25089359  F       0.00000000       0.00000000       0.00000000      -0.06518883      -0.28204644       1.18830407      -6.29221344
Y        5.90123377       4.99552737      13.19098034  T       0.25080235       0.16477987       0.88312531      -0.00134426      -0.00360023       0.02519650      -7.26019192
Y        7.60454655       7.58663273      11.24033356  F       0.00000000       0.00000000       0.00000000      -0.04142631       0.43408826      -0.34116507      -6.29153299
Y        1.82520608       0.04125137      15.21721183  T       0.18641271      -0.99264556      -0.48077413      -0.01133451      -0.00240595      -0.00632188      -6.67689753
Y        1.94126396       5.21242754      13.20104967  T      -0.33426263       0.19347701      -1.12810795      -0.00826641      -0.01526178       0.01450088      -7.53259897
Y        7.75397968      12.78219700       9.25089359  F       0.00000000       0.00000000       0.00000000       0.22493672      -0.20217595       0.88752908      -6.62558126
Y        9.49285762       9.45411110      16.88771508  T       1.50710893       1.70117301      -1.36903519      -0.00726379      -0.00398399      -0.00185733      -6.90989113
Y        3.81811311       2.24186001      16.93995414  T       3.34339864      -1.34496253      -1.42145166       0.05680683       0.00243385      -0.03648648      -7.22944498
Y       12.28358010       3.10149976      14.94997879  T      -0.41628806      -2.49802413      -0.27488047      -0.00225109      -0.00384942      -0.00784098      -7.45730495
Y        2.67702030      10.69176430      14.96982700  T      -0.81787289      -1.36916698      -0.08198131      -0.00187974      -0.00901341      -0.00602226      -7.27669621
Y       -2.15064698       9.21725430      16.90739822  T       0.54672086      -0.77557322      -0.74085484       0.00005070       0.00232381      -0.00226821      -6.29569483
Y        7.69192421       1.98307634      17.03520094  T       1.55725025      -0.74586130       0.12660983       0.00024948       0.00338930      -0.01166781      -6.43741417
Y       13.46324889       5.45309849      16.98441667  T      -2.16536192       2.13228377      -1.66116293       0.00404506      -0.00354002       0.00074378      -6.34216404
Y        4.19918792      13.19332820      13.01837215  T       0.36297453      -1.75105322      -0.41233551      -0.00925015       0.00709309      -0.00212915      -6.66654491
Y       11.09033366       6.95535526      14.93647913  T       0.20245165       0.17376422      -0.98601715      -0.00748099      -0.00657015       0.00376995      -7.15109158
Y        1.51240513      14.34933003      14.87586908  T      -0.94009148      -0.13576108      -1.40099877       0.00101513      -0.00655066      -0.00933762      -6.52110195
Y       -0.73079822      11.64030887      14.96748561  T       2.03554473      -0.58122193      -0.58309866       0.00624504       0.01502103      -0.00104684      -6.95441532
Y        8.93740684       4.19315982      14.85493931  T       0.66408254      -1.24808039      -1.44362344      -0.00496705       0.01153589       0.00198836      -7.43077183
Y        3.93627690       7.28181602      14.87943303  T       0.89444634      -1.18299248      -2.61900937      -0.00520539       0.00934891      -0.00476095      -6.70216227
Y        9.68598480      14.42542181      15.09916147  T       0.85399527      -2.50495172      -1.33761855       0.00186337      -0.01136298      -0.00305177      -6.19987202
Y        0.38170659       7.76300196      14.94488265  T       0.25906262      -2.93806375      -0.67103085       0.00426842      -0.00797388       0.00686902      -7.23926926
Y       10.17604258       0.34497870      18.93442256  T       1.32801226       0.13880879      -1.56779640       0.01914048      -0.00691834      -0.02188321      -6.50026655
Y       -0.06279957       2.37244031      17.03493233  T      -2.92169195       0.12705559      -2.12808659       0.02217656       0.03497547      -0.00922191      -7.13038731
Y        5.52311152       9.83178983      16.79105085  T      -1.36118352      -0.86074057      -3.79387973      -0.00685887      -0.01406771       0.01085333      -6.57824135
Y       11.68347184      12.50866343      13.10284732  T       0.73533476      -1.42202790      -0.38162880      -0.01111371      -0.00543328      -0.00113994      -7.20847082
Y        6.12194213       5.20965644      16.84802803  T      -0.34757943       0.34272105      -0.35537506      -0.00619157      -0.01460440      -0.00580713      -6.69773293
Y        7.57817929       7.60414337      14.78808203  T      -0.02256747       0.95781366      -0.56143931       0.00743195      -0.00581296      -0.00144546      -6.59154081
Y        1.93995548       0.44232483      18.89416662  T       0.63897621       3.37810772      -4.05587836      -0.01575502      -0.01965487       0.02520534      -6.59930897
Y        2.01102159       5.04039387      17.03977535  T       1.58188377       0.55826664      -1.73487715      -0.03158950       0.00067443      -0.01235794      -7.20306206
Y        7.72073348      12.74565303      13.06153140  T       1.25252673      -1.47056727      -1.00585593       0.01091037      -0.00204036      -0.00354326      -7.47199488
N        1.95423703       2.73528461      18.22720642  T      -1.33564201       0.32410393       3.66200330      -0.01735488       0.00076717      -0.04107890      -9.06389236
H        1.78607419       3.06989515      19.17769260  T      -0.09887054      -0.67603890       0.80069940      -0.00869872       0.02258708       0.00740027      -3.86700058
