82
Lattice="15.482664108276367 0.0 9.000000350284799e-16 -3.941528797149658 14.972549438476562 -3.978878974914551 0.0 0.0 31.831031799316406" Properties=species:S:1:pos:R:3:move_mask:L:1:momenta:R:3:forces:R:3:energies:R:1 adsorbate_info="_JSON {\"site\": {\"coordinates\": [12.0589695, 0.96779203, 17.2086525], \"connectivity\": 1, \"topology\": [17], \"n_vector\": [0.21955954287948815, 0.8242559561426073, 0.5219154394094762], \"h_vector\": [1.0, 0.0, 0.0], \"site_formula\": {\"Co\": 1}}, \"smiles\": \"Cl\", \"mdf\": 1.7392287869887733, \"adsorbate_formula\": \"HN\"}" bond_change_count=0 energy=-533.80224609375 stress="0.00029719897429458797 8.050861652009189e-06 -2.0814186427742243e-06 8.050861652009189e-06 0.00026277254801243544 -6.091863542678766e-05 -2.0814186427742243e-06 -6.091863542678766e-05 5.204078115639277e-05" free_energy=-533.80224609375 pbc="T T F"
Co       2.34042872       8.42686532      12.92041119  T       1.32816905      -0.34582654      -1.49841211       0.00170638       0.00583864       0.02632585      -6.57004213
Co      12.14184052       0.96538699      13.10826132  T       0.20925529      -0.20146293       1.10638697      -0.00979172      -0.00856385       0.00635329      -5.68440485
Co       9.69658852      11.82328224      11.24033356  F       0.00000000       0.00000000       0.00000000       0.16586024       0.11652558      -1.06673837      -6.44279194
Co       3.92602110       4.33700800      11.24033356  F       0.00000000       0.00000000       0.00000000      -0.08756114      -0.44310933       0.00190218      -5.54391861
Co      11.70440102      10.55078983      11.24033356  F       0.00000000       0.00000000       0.00000000      -0.06760836       0.36004055      -0.46761510      -5.68440390
Co       5.93383265       3.06451464      11.24033356  F       0.00000000       0.00000000       0.00000000      -0.14999498       0.48237526       0.27228981      -4.98049021
Co      11.03095822       4.83318935      12.86330784  T       0.14075274      -1.57000611      -2.13743960      -0.02276810      -0.00383911       0.00001973      -6.64361620
Co       1.22387576      12.38704586       9.25089359  F       0.00000000       0.00000000       0.00000000       0.17631574       0.57974720       0.34249973      -5.02369499
Co      -0.16326515       4.42176008      11.24033356  F       0.00000000       0.00000000       0.00000000       0.16267708      -0.18799716       0.33598968      -5.25004101
Co       5.60730267      11.90803528      11.24033356  F       0.00000000       0.00000000       0.00000000       0.23738617       0.23995993      -1.08230662      -6.30499887
Co       0.49214431      10.00008520      13.00924144  T       0.15233738      -1.27290996      -1.39142831       0.00909874      -0.00546167       0.00410631      -6.63925171
Co      10.37519716       2.46885601      12.89082265  T       1.31931696      -0.09276519      -0.78706344       0.00205994       0.01920962       0.01704992      -6.21675539
Co       9.17457331       6.44075026      12.86255839  T      -1.32499289       1.48670176      -2.52319410       0.00206205      -0.00485235       0.01905519      -6.60702181
Co      -0.51783448      14.00475788       9.25089359  F       0.00000000       0.00000000       0.00000000      -0.03691800      -0.37747410       0.27074239      -5.37411022
Co       1.84454656       3.14926696      11.24033356  F       0.00000000       0.00000000       0.00000000      -0.01974826       0.89571095      -0.07448187      -5.01761389
Co       7.61511421      10.63554192      11.24033356  F       0.00000000       0.00000000       0.00000000       0.06576750       0.29779360      -0.40105778      -5.78871870
Co       2.49953698       8.47079175      16.77254355  T       2.00890407       1.33490482      -1.45947009      -0.00492548       0.01310266      -0.00814508      -5.42829561
Co      12.21335266       0.98489530      17.31317168  T      -0.41821338      -0.76289637      -1.03010411      -0.00433964      -0.02509881       0.02707192      -6.53100586
Co       9.68614715      11.56680960      15.22338947  T      -0.84260359      -1.26925903       1.80713735      -0.01556741      -0.00820275       0.01645835      -5.89480114
Co       3.94415826       4.40528765      15.24369727  T       0.50628214      -2.00344114       2.30546922      -0.00199471      -0.00073200       0.01832847      -6.63180542
Co      11.60753044      10.30365383      15.28893646  T       0.30060888      -0.98705581       1.74551672       0.02657544      -0.01215393       0.00264126      -6.26509190
Co       6.02464357       3.07460844      15.21240430  T      -0.53515217      -0.21828953       2.06453282       0.00505051      -0.00375052       0.00203748      -6.57181549
Co      10.72530941       4.80183057      16.92632758  T      -0.42003272      -1.22971785      -0.30885854       0.03584630      -0.03837980       0.00015979      -5.67946243
Co       1.36997829      12.39432666      13.16762559  T      -0.07638706       0.98432314       0.80240891      -0.00432758      -0.01652277      -0.00442665      -6.66572237
Co      -0.22345346       4.41233123      15.29866510  T      -0.26343376       1.00186273       1.72295318      -0.00809328       0.00135171       0.00380200      -6.56540680
Co       5.63410374      11.94795226      15.15252180  T      -0.46650038       0.17812365       0.73779815      -0.00089246       0.00395923       0.00866039      -5.74610519
Co       0.56971432       9.72513303      16.76519334  T      -0.77464932      -1.19545678      -1.78160399      -0.00023756       0.00696956      -0.00495329      -5.24358463
Co      10.40534587       2.53105392      17.08516916  T      -0.59040584      -0.35632904       0.30890228       0.02489826       0.01096869       0.00723813      -5.98491335
Co       9.06414542       6.40562535      16.75063772  T       1.28134180       0.24865936       0.13453555      -0.02068682       0.02600666      -0.00338018      -5.52764702
Co      -0.48266570      14.00992768      13.24239468  T      -0.22015172       1.46224962       2.40656274       0.00552027      -0.02693146      -0.02583319      -6.53851128
Co       1.86196903       3.10169002      15.28409529  T      -0.24112703       0.12980265       0.11523149      -0.00928991      -0.02304135       0.00481413      -6.61785841
Co       7.57626202      10.67581283      15.27825556  T       0.25221664      -0.07735121       1.65676278       0.02302812      -0.01007189       0.01135007      -6.46951056
Y        9.60171920       9.67436585      13.17129525  T       1.25167622      -0.88634463       0.06615488      -0.00233850       0.00098963      -0.00014438      -7.47932720
Y        3.74095988       2.04068202      13.16379907  T       0.60833488      -0.03634234      -0.13143419       0.00835241      -0.00145797      -0.00381581      -7.51667213
Y       12.35783672       3.26628304      11.24033356  F       0.00000000       0.00000000       0.00000000       0.36572504      -0.25464347       0.10070769      -6.89736366
Y        2.64574003      10.75255775      11.24033356  F       0.00000000       0.00000000       0.00000000      -0.11948050       0.26563126      -0.12584975      -7.04437923
Y       -2.35488442       9.24990987      13.25601535  T      -0.32257155      -0.08137284       0.52787428      -0.00410186      -0.00372444      -0.00722489      -6.66678524
Y        7.34928027       1.73082717      13.23946371  T      -0.68842184       0.40806117       0.69328488      -0.01019876      -0.00156810      -0.01388256      -6.65026760
Y       13.84634301       5.60093640      13.27287603  T       0.69418131      -1.33378990       0.08059956       0.01200186       0.02038425      -0.00210203      -6.68079853
Y        4.16964054      13.17344666       9.25089359  F       0.00000000       0.00000000       0.00000000      -0.33151537      -0.41613612       0.57334381      -6.10985756
Y       11.14714432       6.98271179      11.24033356  F       0.00000000       0.00000000       0.00000000       0.20923044       0.08863875      -0.17765628      -6.63594055
Y        1.43504775      14.46898651      11.24033356  F       0.00000000       0.00000000       0.00000000       0.13453868      -0.01432891      -0.09300007      -7.27514076
Y       -0.81670117      11.70626640      11.24033356  F       0.00000000       0.00000000       0.00000000      -0.21664405      -0.00605799      -0.20956191      -7.32861757
Y        8.89539528       4.21999168      11.24033356  F       0.00000000       0.00000000       0.00000000      -0.26192126      -0.16463941      -0.02376576      -6.84624624
Y        3.93658876       7.38591671      11.24033356  F       0.00000000       0.00000000       0.00000000      -0.00609171      -0.60193104      -0.24972749      -6.35351944
Y        9.70715618      14.87219143      11.24033356  F       0.00000000       0.00000000       0.00000000      -0.09882347      -0.29437265       0.09660436      -6.61474943
Y        0.39399123       7.98983765      11.24033356  F       0.00000000       0.00000000       0.00000000      -0.22981688      -0.28658199      -0.06154045      -6.71376133
Y       10.23125774       0.42082213      15.18333630  T      -0.49336105       0.03908888      -0.82494867      -0.00631575       0.00753522      -0.00045510      -7.10067940
Y       -0.11409890       2.30042821      13.26611410  T      -1.16963334       1.08623237       2.36241826       0.01466417       0.00594800      -0.00226968      -7.15932512
Y        5.66189255       9.96529963      13.20927602  T       0.70086056       0.96626040       0.36208257      -0.00994137       0.00652243       0.01035362      -7.17906094
Y       11.65617561      12.55751133       9.25089359  F       0.00000000       0.00000000       0.00000000      -0.05011821      -0.24074820       1.22766614      -6.29425144
Y        5.89604275       4.99092515      13.19122105  T       0.24210543       0.14514910       0.89957258       0.00823275      -0.00893755       0.02977309      -7.24092388
Y        7.60454655       7.58663273      11.24033356  F       0.00000000       0.00000000       0.00000000      -0.05582095       0.43052775      -0.35294116      -6.29833603
Y        1.83943538       0.05327234      15.26498833  T       0.10132435      -0.92909722      -0.30241752      -0.01728366      -0.00588655       0.00325894      -6.69726181
Y        1.94096198       5.23467786      13.18878259  T      -0.33206062       0.19985857      -1.15154629      -0.00179565      -0.00830413       0.01059039      -7.53155613
Y        7.75397968      12.78219700       9.25089359  F       0.00000000       0.00000000       0.00000000       0.23746836      -0.17757697       0.91567737      -6.62094116
Y        9.49129571       9.43646974      16.91291924  T       1.50928177       1.70615352      -1.36585663      -0.01221870      -0.00521135       0.01231068      -6.93423080
Y        3.88565537       2.25834219      16.97734362  T       0.28449314      -0.55337706      -0.28395874       0.00420775       0.01090318       0.00882529      -6.82912397
Y       12.30057335       3.10337719      14.96821416  T      -0.53093430      -2.57889448      -0.58220153      -0.01927891      -0.00106941       0.01647811      -7.42877579
Y        2.69820074      10.73440511      14.97254772  T      -0.81942976      -1.37457712      -0.08332668       0.00582303      -0.02376036      -0.00905671      -7.23442650
Y       -2.12314873       9.22327453      16.92864414  T       0.55270797      -0.78010607      -0.74111006      -0.00866445      -0.01245271       0.00998144      -6.29427242
Y        7.63885350       1.96186329      16.99440600  T       1.49153623      -0.71551215       0.08972165       0.01010104      -0.00571733       0.00628214      -6.43371296
Y       13.53260598       5.50285223      16.97351662  T      -1.85622812       2.17160825      -1.75347699      -0.00587543      -0.01808142       0.00144836      -6.32879925
Y        4.19556637      13.20625601      13.00510674  T       0.42430726      -1.68316874      -0.39136641      -0.00294733      -0.00914191      -0.02201059      -6.66056633
Y       11.10813741       6.98575547      14.93926492  T       0.20819692       0.15387913      -0.97245458      -0.00415483      -0.01587525      -0.02304030      -7.17303610
Y        1.53625265      14.35695476      14.90560165  T      -1.20465879       0.13795756      -1.42424493       0.01273999      -0.00263559       0.01763636      -6.53483725
Y       -0.69015008      11.59634108      14.97214385  T       2.01650319      -0.56957001      -0.57496595      -0.00812968      -0.00392373       0.00149334      -6.92673111
Y        8.93612115       4.20595854      14.87286477  T       0.74732694      -1.33788554      -1.33612131       0.00917515       0.00550216      -0.00929735      -7.47924089
Y        3.97807415       7.33783409      14.80271408  T       0.93753145      -1.14798032      -2.66413093      -0.01091963       0.01057313       0.00831184      -6.64730406
Y        9.72229880      14.27244230      15.33289855  T       2.54701060      -3.54425284       0.37160137      -0.02444641       0.01432824       0.02096899      -6.94596291
Y        0.37921233       7.85994024      14.88221264  T       0.22377183      -2.89825806      -0.69942717      -0.00501244      -0.00182833       0.00897395      -7.21029329
Y       10.11544202       0.26771772      18.99838481  T       2.18040581       0.84966549      -1.02742616       0.09104276       0.00478891       0.00870778      -7.12301159
Y       -0.13203133       2.40958186      17.00680368  T      -0.53606014       0.72037813      -1.55638977       0.00117527      -0.00105532       0.01187392      -6.69895458
Y        5.50513042       9.84580983      16.79594283  T      -1.36413489      -0.85758748      -3.78862480       0.00618976      -0.01509669       0.00284934      -6.59681845
Y       11.68964488      12.48559800      13.11257575  T       0.83708793      -1.41240059      -0.41725990      -0.02061630      -0.02188846       0.00229833      -7.16621399
Y        6.06087036       5.22174724      16.84531406  T      -0.57875235       0.15005315      -0.26392565      -0.00981028      -0.02300800       0.00196849      -6.68957281
Y        7.57797410       7.62315168      14.78270735  T      -0.01657772       0.95926821      -0.56193479       0.01670066      -0.01321886       0.00633580      -6.60303497
Y        1.95805263       0.00769056      18.93744996  T       1.15264326       1.29813221      -3.42609791      -0.00495093      -0.00776999       0.01151113      -5.99032497
Y        1.99226824       5.39239750      16.90075378  T       1.54082820       0.59089925      -1.55203893      -0.01442932       0.00670238       0.00467309      -6.91096210
Y        7.74066069      12.73585241      13.03750452  T       1.04796892      -1.88229151      -1.31069496       0.00921070      -0.02571258      -0.00505674      -7.46849728
N       12.23169040       1.07174764      19.15742884  T      -1.37948258       0.50039753       1.03817490      -0.06191450      -0.01204345      -0.00359004      -8.57950783
H       12.46555466       2.03020416      19.40574841  T      -1.13880448      -0.08128810       0.27432665      -0.00011018      -0.03596547       0.00512743      -3.84483600
