37
Lattice="8.014131546020508 0.0 5.000000018137469e-16 1.2000000467046398e-15 7.718464374542236 -2.671377420425415 0.0 0.0 29.385150909423828" Properties=species:S:1:pos:R:3:move_mask:L:1:momenta:R:3:forces:R:3:energies:R:1 adsorbate_info="_JSON {\"site\": {\"coordinates\": [6.67844343, 1.92961609, 17.0300312], \"connectivity\": 1, \"topology\": [34], \"n_vector\": [0.30277810512675857, 0.5312735552480821, 0.7912482723835248], \"h_vector\": [1.0, 0.0, 0.0], \"site_formula\": {\"Pt\": 1}}, \"smiles\": \"Cl\", \"mdf\": 1.3756497288606622, \"adsorbate_formula\": \"H\"}" bond_change_count=0 energy=-274.1776428222656 stress="-6.374243093887344e-05 8.232607910940715e-07 1.3807495236051182e-07 8.232607910940715e-07 0.0006384465959854424 -0.00017767441750038415 1.3807495236051182e-07 -0.00017767441750038415 -0.00021703203674405813" free_energy=-274.1776428222656 pbc="T T F"
Cr       0.00113271      -0.29603339      12.86880700  T       1.88804101      -3.82410142      -2.20330973      -0.00643784       0.02391008       0.03241879      -9.36983395
Cr       0.00000000       3.85923219      10.35158730  F       0.00000000       0.00000000       0.00000000      -0.05565798       0.08970268      -0.07370239      -8.51533699
Cr      -0.07094081      -0.01903195      15.80802245  T       0.51706037       0.66412680       0.97504243      -0.02374033       0.05678447       0.02541897      -9.33854771
Cr       0.06616501       3.65710820      12.87961771  T      -0.04101109      -0.42454909       0.21089845      -0.01607754       0.03839131       0.03763038      -9.31717873
Cr      -0.08902839      -0.41607850      18.28298183  T       0.70432151      -1.57456981       0.22963556       0.03076538       0.01367272       0.01210847      -7.84232521
Cr       0.10336083       3.68901466      15.82014248  T       1.69390211       1.00007292       0.13159722       0.00729471       0.00707054      -0.00899166      -8.54273701
Cr       2.66993707      -0.29177406      12.86317445  T      -1.21677317      -1.18999958      -0.65202446       0.02828271      -0.06993163      -0.03557536      -9.36484528
Cr       2.67137742       3.85923219      10.35158730  F       0.00000000       0.00000000       0.00000000       0.00619838       0.20690700      -0.08297113      -8.53240108
Cr       2.67036701      -0.02741273      15.78965140  T       0.75310552       1.78631870       0.76986566       0.00775288       0.00925720      -0.01205609      -9.38141918
Cr       2.66990315       3.61823533      12.93894002  T      -0.08582666      -0.08598313      -0.59281597      -0.00314825       0.01911416       0.02159802      -9.35690689
Cr       2.68757694      -0.43856869      18.71151056  T       0.05513283       0.29639828      -0.22297701      -0.00881533      -0.03079915       0.04336681      -8.00024509
Cr       2.65685130       3.73984922      15.75829088  T       0.34856196       0.65666437       1.01280919      -0.00249053       0.03701073      -0.03636939      -8.45101738
Cr       5.35048107      -0.28899670      12.86697555  T      -0.45719248      -3.36055478      -1.50805617      -0.03509893      -0.04566213       0.01686278      -9.36992359
Cr       5.34275484       3.85923219      10.35158730  F       0.00000000       0.00000000       0.00000000       0.05042567       0.09672610      -0.06502920      -8.51497173
Cr       5.41181749      -0.01906644      15.79703121  T       0.18777349       1.71192219       1.22436001       0.02331135       0.02347531       0.01298405      -9.32580948
Cr       5.28543156       3.65367019      12.87767459  T      -0.44361479      -1.39611426      -0.64968099       0.01088681       0.04136887       0.02558451      -9.31896877
Cr       5.43155377      -0.39249236      18.21545191  T       0.93853733      -0.67364812      -0.41823618      -0.01255404       0.02148604       0.00734669      -7.82907629
Cr       5.26029313       3.68845691      15.82632002  T      -0.81891262       0.25882807      -0.44194841      -0.00088287      -0.02565038       0.00105954      -8.54674911
Pt       1.33568871       1.92961609      11.68727589  F       0.00000000       0.00000000       0.00000000       0.11861355      -0.04091430      -0.19193767      -5.79137087
Pt       1.33568871       5.78884840       9.01589870  F       0.00000000       0.00000000       0.00000000      -0.01278794       0.05223294      -1.10838377      -5.04583979
Pt       1.33939978       1.78016369      14.40798991  T      -1.61059733       1.12156502      -0.18704562      -0.00392116       0.02968662       0.00444387      -6.86402369
Pt       1.33568871       5.78884840      11.68727589  F       0.00000000       0.00000000       0.00000000      -0.08275889      -0.24854189       1.19600093      -6.97091389
Pt       1.34715109       1.47841894      17.17954976  T       0.51976623      -6.08480526       2.20041433      -0.06100704      -0.04575574       0.01386334      -5.87602520
Pt       1.34426089       5.64786596      14.36609648  T       1.05173802       0.16595011       1.04728343       0.03555313       0.01980625      -0.00787252      -6.65635490
Pt       4.00706577       1.92961609      11.68727589  F       0.00000000       0.00000000       0.00000000      -0.13693535      -0.01452208      -0.19913340      -5.78560638
Pt       4.00706577       5.78884840       9.01589870  F       0.00000000       0.00000000       0.00000000       0.03201262       0.08482146      -1.06421614      -5.03865099
Pt       4.01530161       1.78981174      14.40636662  T       0.20091602       2.68942874       0.84162136      -0.05083038       0.05861012       0.02345746      -6.86286688
Pt       4.00706577       5.78884840      11.68727589  F       0.00000000       0.00000000       0.00000000       0.08935940      -0.25881055       1.17873871      -6.96930981
Pt       3.99114638       1.49063172      17.17154145  T       1.24676209      -1.79496570       0.57195519       0.06322563       0.00687242       0.01278716      -5.87594748
Pt       4.00319753       5.62757133      14.36640252  T      -2.13479864      -0.25368524       2.12242589      -0.07325801       0.01328641      -0.01957271      -6.64862442
Pt       6.67844343       1.92961609      11.68727589  F       0.00000000       0.00000000       0.00000000       0.01923057       0.36086521       0.03394927      -5.74812794
Pt       6.67844343       5.78884840       9.01589870  F       0.00000000       0.00000000       0.00000000      -0.00483061       0.05897982      -1.13581121      -5.04919910
Pt       6.68290013       1.90601209      14.41370245  T      -2.61504423       0.94257641       0.62555198       0.03169997       0.03033003       0.03707875      -6.89209270
Pt       6.67844343       5.78884840      11.68727589  F       0.00000000       0.00000000       0.00000000      -0.00003038      -0.55835319       1.26493609      -6.98075151
Pt       6.68145282       1.77798747      17.23154305  T       0.25397323       2.31516835       2.22575135      -0.00062990      -0.01316637       0.09136698      -6.15121317
Pt       6.67798114       5.39011242      14.37815464  T       0.66871492      -2.85234093      -0.66044275       0.04419440       0.00289449      -0.00860509      -6.71511173
H        6.69363841       2.15142447      18.77569228  T      -0.68751484       0.64989141      -0.51856356      -0.00691388      -0.05115528      -0.04277398      -3.33723712
