37
Lattice="8.014131546020508 0.0 5.000000018137469e-16 1.2000000467046398e-15 7.718464374542236 -2.671377420425415 0.0 0.0 29.385150909423828" Properties=species:S:1:pos:R:3:move_mask:L:1:momenta:R:3:forces:R:3:energies:R:1 adsorbate_info="_JSON {\"site\": {\"coordinates\": [0.0, 0.0, 18.36571884], \"connectivity\": 1, \"topology\": [4], \"n_vector\": [0.10942815347320332, 0.2249850061081286, 0.9681979272101188], \"h_vector\": [1.0, 0.0, 0.0], \"site_formula\": {\"Cr\": 1}}, \"smiles\": \"Cl\", \"mdf\": 1.3756497288606613, \"adsorbate_formula\": \"H\"}" bond_change_count=0 energy=-274.4420166015625 stress="1.6999152649077587e-05 -9.169686450150039e-07 7.691998575865e-07 -9.169686450150039e-07 0.0005902331904508173 -0.0001251630310434848 7.691998575865e-07 -0.0001251630310434848 -0.00024312462483067065" free_energy=-274.4420166015625 pbc="T T F"
Cr      -0.01470359      -0.28869281      12.85447024  T       0.36406931      -2.14153355      -0.64986689      -0.02381378       0.06189812       0.05498871      -9.36438465
Cr       0.00000000       3.85923219      10.35158730  F       0.00000000       0.00000000       0.00000000      -0.01541197       0.08557080      -0.06449518      -8.51110172
Cr      -0.02194709       0.02527997      15.71165044  T       0.99424935       1.56719037       0.11813291      -0.00882069      -0.04318899      -0.02629253      -9.28411198
Cr       0.08132517       3.65970015      12.86276405  T       0.32499710      -1.10302426      -0.80603837      -0.04804404       0.01773620       0.07553288      -9.34548187
Cr      -0.28007655      -0.26867428      18.32545324  T      -0.99976401      -1.85052295      -1.62490303      -0.01888964      -0.06594560       0.01431274      -8.17766762
Cr       0.11993210       3.80750088      15.73798137  T      -0.30261630      -0.19991065       0.32266785      -0.05371059      -0.01613283       0.03674369      -8.44070816
Cr       2.66402968      -0.30147626      12.85512888  T      -0.91615510      -3.10599413      -0.14157255       0.05198845       0.01975958      -0.01191396      -9.37212944
Cr       2.67137742       3.85923219      10.35158730  F       0.00000000       0.00000000       0.00000000       0.01034260       0.00749940      -0.06688058      -8.54550457
Cr       2.66206622       0.03874270      15.75740144  T      -0.18794157       0.98265917      -0.09019334       0.00575812      -0.05114965       0.00845181      -9.40348530
Cr       2.66499770       3.77913091      12.96088027  T       0.37036572      -1.29720256      -0.98392390       0.01709861      -0.07812366       0.03546892      -9.28653812
Cr       2.66899290      -0.35540180      18.58272900  T      -0.50769641       1.20771789      -0.29407925       0.01382845       0.00974430       0.05076791      -8.02156162
Cr       2.68783872       3.68977052      15.79461030  T      -0.76923608       1.39145382      -0.67195959       0.00593054       0.03935286      -0.03419300      -8.44104481
Cr       5.36644904      -0.27977133      12.85742863  T       0.12689466      -3.50433226      -2.44310431      -0.02358614      -0.07123212      -0.00610414      -9.36517048
Cr       5.34275484       3.85923219      10.35158730  F       0.00000000       0.00000000       0.00000000       0.00490472       0.09931883      -0.05712953      -8.51090240
Cr       5.36938484       0.03149473      15.70652390  T       0.03536117       0.55616529      -0.44919346       0.00154919      -0.05205995      -0.00119230      -9.29098606
Cr       5.26112136       3.65261236      12.86367824  T      -0.26525458      -0.94622117      -0.16491483       0.03850177       0.04547077       0.07661212      -9.35062885
Cr       5.62492996      -0.27200175      18.32806084  T       1.47932100      -1.45448495       0.42470519       0.00467604      -0.05258146       0.02851039      -8.17390728
Cr       5.20969144       3.80338747      15.72502070  T      -0.23339465       0.16577681       0.80351380       0.03809976      -0.01730651       0.03243244      -8.43339825
Pt       1.33568871       1.92961609      11.68727589  F       0.00000000       0.00000000       0.00000000       0.25911492       0.24840796      -0.11808801      -5.76106691
Pt       1.33568871       5.78884840       9.01589870  F       0.00000000       0.00000000       0.00000000      -0.05922160       0.02216874      -1.12274337      -5.04939127
Pt       1.33832254       1.83682666      14.38746971  T      -0.58338445       0.43528522      -1.33572748      -0.07892960      -0.03938334      -0.01337193      -6.87652493
Pt       1.33568871       5.78884840      11.68727589  F       0.00000000       0.00000000       0.00000000      -0.01857255      -0.19426635       1.17097545      -6.97420931
Pt       1.32640826       1.50017908      17.17048927  T      -0.16235495      -0.55240415       0.97585394       0.02039700       0.02898622       0.02851053      -5.79244089
Pt       1.33288387       5.71494192      14.39663468  T      -0.57198198       0.95945201       2.91522233      -0.01503391      -0.05492779      -0.01501492      -6.56421280
Pt       4.00706577       1.92961609      11.68727589  F       0.00000000       0.00000000       0.00000000      -0.28087211       0.25546515      -0.14322573      -5.75290632
Pt       4.00706577       5.78884840       9.01589870  F       0.00000000       0.00000000       0.00000000       0.06627633       0.09562653      -1.03114820      -5.03488731
Pt       3.99855415       1.81574602      14.38152782  T      -0.11093842      -2.66167175       0.12834812       0.05161580       0.01055469      -0.00239222      -6.88162422
Pt       4.00706577       5.78884840      11.68727589  F       0.00000000       0.00000000       0.00000000       0.01876049      -0.17257865       1.14332449      -6.97054195
Pt       4.00996396       1.49712896      17.16709444  T      -1.42236343      -3.00953627       1.79482999      -0.02677468      -0.00131577       0.02173756      -5.79592991
Pt       4.00600448       5.72125479      14.39469817  T       0.38397678      -0.86108882       1.72232245       0.00377307      -0.03694296      -0.01638874      -6.57420921
Pt       6.67844343       1.92961609      11.68727589  F       0.00000000       0.00000000       0.00000000       0.01801882       0.43707597      -0.14062008      -5.71685982
Pt       6.67844343       5.78884840       9.01589870  F       0.00000000       0.00000000       0.00000000      -0.01050492       0.02273703      -1.18669391      -5.06742716
Pt       6.67441008       1.94534303      14.36827596  T       0.23138325       0.77460713      -0.01399707       0.03728671      -0.04716048       0.07109328      -6.88287687
Pt       6.67844343       5.78884840      11.68727589  F       0.00000000       0.00000000       0.00000000      -0.00984965      -0.54573619       1.14212823      -6.96651506
Pt       6.67363914       1.69650904      17.07336027  T      -0.77457844      -3.24284841       0.19916931       0.01874877       0.05827945       0.07351377      -5.78472805
Pt       6.67518207       5.51789056      14.36053622  T       0.58897350       3.44943474       0.41110923       0.01858265       0.01641351      -0.03693956      -6.73372507
H       -1.33174890      -0.03069688      19.63903976  T      -0.47775931       0.19919864      -0.72928203      -0.01321723      -0.04203394       0.02972257      -3.94317317
