37
Lattice="8.014131546020508 0.0 5.000000018137469e-16 1.2000000467046398e-15 7.718464374542236 -2.671377420425415 0.0 0.0 29.385150909423828" Properties=species:S:1:pos:R:3:move_mask:L:1:momenta:R:3:forces:R:3:energies:R:1 adsorbate_info="_JSON {\"site\": {\"coordinates\": [1.9799316566998833e-07, 1.2864107266666667, 17.47526041333333], \"connectivity\": 3, \"topology\": [4, 22, 34], \"n_vector\": [-0.005446914297316621, 0.6585945264754697, 0.7524782925913474], \"h_vector\": [-1.0, 0.0, 0.0], \"site_formula\": {\"Cr\": 1, \"Pt\": 2}}, \"smiles\": \"S1S\", \"mdf\": 1.8071868725984435, \"adsorbate_formula\": \"H\"}" bond_change_count=0 energy=-274.2261657714844 stress="3.708671283675358e-05 6.73237593673548e-07 -7.661332119823783e-07 6.73237593673548e-07 0.0006637795595452189 -0.00016863364726305008 -7.661332119823783e-07 -0.00016863364726305008 -0.0001592039770912379" free_energy=-274.2261657714844 pbc="T T F"
Cr       0.00448981      -0.30547843      12.87693991  T       0.36263476      -2.13959150      -0.64435514      -0.01759873      -0.01453853      -0.00939140      -9.37268734
Cr       0.00000000       3.85923219      10.35158730  F       0.00000000       0.00000000       0.00000000      -0.00279123       0.16584967      -0.10588929      -8.53520393
Cr       0.00854253       0.03088607      15.85367932  T       1.14473268       1.07077990      -0.44471571       0.00772259       0.00323514       0.00160654      -9.33174896
Cr      -0.00876274       3.58708123      12.95540655  T       0.32068272      -1.10206975      -0.81041928      -0.01738302       0.02190179      -0.00858167      -9.35594177
Cr       0.01408549      -0.96708528      18.92763554  T      -0.03195883      -2.31245771      -0.72347239       0.00199982      -0.01876611       0.00716279      -7.61844397
Cr      -0.02878124       3.79629013      15.67848370  T      -0.33521490      -0.04137935      -0.10706145      -0.00570855      -0.00200903      -0.04947378      -8.50359344
Cr       2.67115809      -0.28484309      12.87413755  T      -0.91241208      -3.10216251      -0.13689097       0.01690497      -0.01978356      -0.01498967      -9.37400818
Cr       2.67137742       3.85923219      10.35158730  F       0.00000000       0.00000000       0.00000000      -0.03744924       0.11608423      -0.03340256      -8.52604008
Cr       2.71134578      -0.08777264      15.79184815  T      -0.22706555       0.72213633      -0.06562468       0.02981620       0.00909327       0.00765511      -9.27767372
Cr       2.66568570       3.65243682      12.91586282  T       0.37278042      -1.29501954      -0.98633040       0.01111789       0.02925257       0.00589601      -9.32988548
Cr       2.61430052      -0.30358951      18.27330866  T      -0.32265677       0.99241406      -0.44475318       0.02239857       0.03557682      -0.02792793      -7.87983799
Cr       2.57553120       3.61497838      15.88102983  T      -0.77418009       1.44153923      -0.62013898       0.00787007       0.00725134       0.00583954      -8.55731773
Cr       5.33768305      -0.28380756      12.87374085  T       0.12560649      -3.49873258      -2.43527592      -0.00036537      -0.06124427      -0.02887735      -9.37301731
Cr       5.34275484       3.85923219      10.35158730  F       0.00000000       0.00000000       0.00000000       0.03953579       0.11063530      -0.03614494      -8.53086948
Cr       5.29199042      -0.08123037      15.80167371  T       0.01272611       0.29044599      -0.52305489      -0.02989467       0.01072761      -0.00347640      -9.28879833
Cr       5.36072342       3.66341942      12.93132745  T      -0.26412161      -0.94094439      -0.15831815       0.00148963       0.00229190      -0.01416312      -9.32291222
Cr       5.37568116      -0.31248037      18.34008093  T       0.12666871      -1.49602264       0.02248183      -0.01655223       0.03217174      -0.02275471      -7.90036583
Cr       5.45530822       3.61876163      15.86970163  T      -0.20391281       0.28120701       0.84967039       0.00637647       0.00789464      -0.00674824      -8.53949928
Pt       1.33568871       1.92961609      11.68727589  F       0.00000000       0.00000000       0.00000000       0.01523201       0.15383875       0.05308960      -5.78309774
Pt       1.33568871       5.78884840       9.01589870  F       0.00000000       0.00000000       0.00000000       0.05794282       0.06239756      -1.10653532      -5.04323196
Pt       1.33148388       1.79104976      14.44021808  T      -0.63660773       0.38244462      -1.19683637       0.05049601      -0.01258195       0.04876892      -6.86601686
Pt       1.33568871       5.78884840      11.68727589  F       0.00000000       0.00000000       0.00000000      -0.14971328      -0.39260682       1.02768707      -6.96052170
Pt       1.28342045       1.60379014      17.26411632  T       0.57635514      -0.08445862       0.38752499       0.01215002      -0.02700639      -0.08415994      -5.95773649
Pt       1.35277882       5.59867360      14.33567353  T      -0.54523609       1.19023175       2.78327142      -0.01011856      -0.04801886       0.00406727      -6.69946575
Pt       4.00706577       1.92961609      11.68727589  F       0.00000000       0.00000000       0.00000000       0.03600891       0.28890342      -0.01098050      -5.75179386
Pt       4.00706577       5.78884840       9.01589870  F       0.00000000       0.00000000       0.00000000      -0.00740574       0.11649299      -1.02119017      -5.03623343
Pt       4.00941295       1.88053682      14.40934340  T      -0.10130270      -2.67836189       0.09902677      -0.02566659       0.00462376       0.00664275      -6.86814022
Pt       4.00706577       5.78884840      11.68727589  F       0.00000000       0.00000000       0.00000000       0.00333207      -0.43595973       1.41211152      -6.98957157
Pt       4.00553663       1.58750823      17.16176643  T      -1.41738494      -3.00832270       1.92326422       0.01510871       0.00089949       0.00564203      -5.80522156
Pt       4.00995454       5.50425926      14.43679178  T       0.35401471      -0.87080290       1.65313270      -0.00015341       0.01362230       0.01520687      -6.50675583
Pt       6.67844343       1.92961609      11.68727589  F       0.00000000       0.00000000       0.00000000      -0.04908408       0.13676667       0.05681489      -5.78902149
Pt       6.67844343       5.78884840       9.01589870  F       0.00000000       0.00000000       0.00000000      -0.05028815       0.08870357      -1.06573498      -5.03584051
Pt       6.68216154       1.76180191      14.44248073  T       0.28017716       0.70418489       0.10588851      -0.03214069      -0.00489532       0.01964739      -6.86568832
Pt       6.67844343       5.78884840      11.68727589  F       0.00000000       0.00000000       0.00000000       0.14583977      -0.32449314       1.02776420      -6.95810318
Pt       6.72351197       1.57246241      17.26973655  T      -1.78836111      -2.36571380      -0.48525434      -0.01011781      -0.01442724      -0.04786605      -5.96371460
Pt       6.66748040       5.63744760      14.33887275  T       0.44638154       3.31559235       0.30344018      -0.00397708      -0.03343811      -0.00389218      -6.70831823
H        0.00199926       2.06211402      18.36406624  T       0.04840147       0.24677228       1.05395022      -0.01493383      -0.00844496      -0.00342223      -4.01976871
