37
Lattice="8.014131546020508 0.0 5.000000018137469e-16 1.2000000467046398e-15 7.718464374542236 -2.671377420425415 0.0 0.0 29.385150909423828" Properties=species:S:1:pos:R:3:move_mask:L:1:momenta:R:3:forces:R:3:energies:R:1 adsorbate_info="_JSON {\"site\": {\"coordinates\": [0.667844355, 2.89442414, 16.36218643], \"connectivity\": 2, \"topology\": [5, 22], \"n_vector\": [-0.19461225181206251, 0.4398855603097238, 0.8767136164538787], \"h_vector\": [0.4946469672245866, -0.7145967055248486, 0.4946472745993365], \"site_formula\": {\"Cr\": 1, \"Pt\": 1}}, \"smiles\": \"S1S\", \"mdf\": 1.6644251797989993, \"adsorbate_formula\": \"H\"}" bond_change_count=0 energy=-274.2247009277344 stress="2.8729700716212392e-05 -1.3398673104347836e-07 -2.2113829345471459e-07 -1.3398673104347836e-07 0.0006551931728608906 -0.00017543738067615777 -2.2113829345471459e-07 -0.00017543738067615777 -0.00016036577289924026" free_energy=-274.2247009277344 pbc="T T F"
Cr      -0.00276476      -0.30731329      12.87739842  T      -0.79686258      -3.48405630      -0.68489919       0.01288248       0.00741413      -0.00857782      -9.37299919
Cr       0.00000000       3.85923219      10.35158730  F       0.00000000       0.00000000       0.00000000      -0.00235370       0.15475036      -0.10006478      -8.53361607
Cr      -0.00103445       0.02199514      15.85201990  T      -1.19952989       0.44308526       1.66992674      -0.00320593      -0.00833430       0.00342713      -9.32830906
Cr       0.00059148       3.58856632      12.95312063  T      -1.08799148      -1.61363505      -1.11837436       0.01774571       0.03728554       0.00007640      -9.35310555
Cr      -0.00565958      -0.99611373      18.93545313  T      -0.12114788      -1.61575869      -1.05248796       0.00035395      -0.01490027      -0.00776757      -7.60280800
Cr      -0.00344094       3.77512828      15.67567915  T       1.11870299       1.43360576       0.10424796       0.00540777       0.03566292      -0.05844971      -8.51578236
Cr       2.67540209      -0.28651417      12.87075032  T      -0.01829993      -1.59559410      -0.60715909      -0.00408964      -0.02576870      -0.00466922      -9.37120438
Cr       2.67137742       3.85923219      10.35158730  F       0.00000000       0.00000000       0.00000000      -0.04196819       0.10752772      -0.03229681      -8.52627945
Cr       2.70676330      -0.08859072      15.80750793  T       1.34209501       1.94943647       0.50907646       0.02816094      -0.00423525      -0.02380082      -9.28395176
Cr       2.66349459       3.65829367      12.92116122  T       0.92166130      -2.81095155       0.66766710      -0.01413736       0.01974301       0.01876102      -9.32631493
Cr       2.62479083      -0.30283359      18.32922762  T      -0.63510245      -0.55431810       0.32328641       0.00752045       0.01020618      -0.01843235      -7.89342880
Cr       2.57914774       3.61172442      15.86958507  T       0.25678649       0.83666675       1.32351441      -0.03137492       0.00664781       0.00170621      -8.54557228
Cr       5.34090356      -0.29075774      12.87812831  T      -0.16886228      -2.77842639       0.34884449      -0.00848853      -0.00275563      -0.04125485      -9.37738609
Cr       5.34275484       3.85923219      10.35158730  F       0.00000000       0.00000000       0.00000000       0.04293002       0.11038525      -0.03499895      -8.52470207
Cr       5.30638658      -0.08001759      15.79953736  T      -0.74001522       1.16920722      -0.14923083      -0.02650153      -0.00448026       0.00442579      -9.28629398
Cr       5.34147546       3.65228151      12.91613298  T       0.13801765      -0.84666260      -1.93135638       0.01238628       0.03901518       0.03813396      -9.32907009
Cr       5.39193125      -0.31222127      18.31196066  T      -0.35501545       1.34859075       0.19275526       0.00232778       0.04371734      -0.01910656      -7.89300013
Cr       5.43636636       3.61327255      15.86697660  T      -0.30961118       2.19136560      -0.13752608       0.02657451       0.01225907       0.01369444      -8.54507637
Pt       1.33568871       1.92961609      11.68727589  F       0.00000000       0.00000000       0.00000000       0.04277735       0.15198123       0.05599330      -5.78609467
Pt       1.33568871       5.78884840       9.01589870  F       0.00000000       0.00000000       0.00000000       0.04551475       0.06767721      -1.09555244      -5.03912640
Pt       1.33399772       1.76948186      14.43930832  T      -0.99589240       1.05452015      -0.67125550      -0.00427988      -0.00434636       0.02665054      -6.86498022
Pt       1.33568871       5.78884840      11.68727589  F       0.00000000       0.00000000       0.00000000      -0.13898680      -0.36342368       1.06320572      -6.96036100
Pt       1.28999669       1.57830283      17.26251594  T       0.43362054      -0.30241194       1.37116996      -0.04600792       0.01633289      -0.03744990      -5.96564436
Pt       1.35426984       5.61359493      14.34654518  T      -2.36472661       0.34518731       0.16966299      -0.07586023      -0.02193096      -0.03858393      -6.69818020
Pt       4.00706577       1.92961609      11.68727589  F       0.00000000       0.00000000       0.00000000      -0.01488958       0.22918123      -0.05094159      -5.75793076
Pt       4.00706577       5.78884840       9.01589870  F       0.00000000       0.00000000       0.00000000       0.00466555       0.09000620      -1.05108786      -5.03885603
Pt       4.00639956       1.87063000      14.40641146  T      -0.12033672      -0.22994184      -0.52796863      -0.01029630      -0.01682051       0.01986180      -6.86707973
Pt       4.00706577       5.78884840      11.68727589  F       0.00000000       0.00000000       0.00000000      -0.00459916      -0.42408562       1.43875980      -6.98878527
Pt       4.00733120       1.57891077      17.16279086  T      -0.44596909      -4.80754100       1.14603992       0.01136035       0.01924330      -0.00605609      -5.81147671
Pt       4.00692326       5.51909870      14.44043642  T       1.87724589       1.80563774       2.20848995      -0.02262907      -0.01527654      -0.00654942      -6.50869513
Pt       6.67844343       1.92961609      11.68727589  F       0.00000000       0.00000000       0.00000000      -0.03382059       0.14836782       0.05986601      -5.78321648
Pt       6.67844343       5.78884840       9.01589870  F       0.00000000       0.00000000       0.00000000      -0.05189481       0.05971429      -1.11251903      -5.04209995
Pt       6.67813787       1.77352734      14.43828469  T       0.93075600       1.48787832       0.78221008       0.01604321      -0.00979809       0.01865458      -6.86856937
Pt       6.67844343       5.78884840      11.68727589  F       0.00000000       0.00000000       0.00000000       0.13985519      -0.39087883       1.05746293      -6.96082115
Pt       6.72547043       1.58380595      17.26225810  T       0.27508669      -1.00544323       0.58281780       0.02886109      -0.01047927      -0.04362658      -5.95459270
Pt       6.65800139       5.60543616      14.34015586  T       0.28101771      -0.90178087       2.03159082       0.09365314      -0.02062043      -0.02476421      -6.70406532
H        0.00123682       2.06107513      18.35656852  T      -0.04839362      -0.24739195       0.32224663      -0.00363661      -0.02898432      -0.00412968      -4.01516056
