50
Lattice="10.06605052947998 -0.0 -6.000000233523199e-16 2.9999999050033628e-15 10.486835479736328 4.460142135620117 -0.0 3.79999986555371e-15 31.220993041992188" Properties=species:S:1:pos:R:3:move_mask:L:1:momenta:R:3:forces:R:3:energies:R:1 adsorbate_info="_JSON {\"site\": {\"coordinates\": [-3.9826659833934096e-08, 5.928689323333334, 21.657461169999998], \"connectivity\": 3, \"topology\": [3, 19, 25], \"n_vector\": [-0.032923714975409496, 0.07109148838314941, 0.9969262907916948], \"h_vector\": [0.5698365621210645, -0.8217580498358664, 0.0], \"site_formula\": {\"Zr\": 2, \"Pd\": 1}}, \"smiles\": \"S1S\", \"mdf\": 1.743880714383654, \"adsorbate_formula\": \"HO\"}" bond_change_count=0 energy=-348.58538818359375 stress="0.00045326113468036056 -3.806989923305082e-07 8.477143182972213e-07 -3.806989923305082e-07 0.00042738934280350804 0.00012360572873149067 8.477143182972213e-07 0.00012360572873149067 0.0001443654327886179" free_energy=-348.58538818359375 pbc="T T F"
Zr       1.63241324       3.80406787      19.44295035  T      -0.14668003      -1.73695303       1.96629189       0.01947400      -0.05186730      -0.02197233      -9.01001453
Zr      -0.00470742       1.53145754      17.15340429  T      -1.37231689       0.08169999      -0.23050109       0.01110480       0.00923404       0.04565394      -9.30803680
Zr       0.00017438       9.07722545      19.20442964  T      -0.22569554       0.53179358       0.53899257      -0.00619070      -0.03432664       0.00413156      -9.09833145
Zr       1.65306727       6.71696294      21.31005836  T       0.86779252      -1.42661133      -0.78303962       0.02086955       0.04559770       0.06269610      -9.23548603
Zr       1.67767513       3.75169039      14.96724892  F       0.00000000       0.00000000       0.00000000      -0.10239486       0.06177396      -0.02188748      -8.42695713
Zr      -0.00000000       1.49172723      12.73717785  F       0.00000000       0.00000000       0.00000000       0.00587798       0.08592445       0.50163519      -7.62852097
Zr      -0.00000000       8.99510765      14.96724892  F       0.00000000       0.00000000       0.00000000       0.00080968      -0.73774016       0.45433655      -7.37434101
Zr       1.65755324       6.84776678      17.01376984  T       1.62340295       0.79512367      -1.23753653       0.01423986       0.00226517      -0.00454532      -9.17391968
Zr       5.04981047       3.85251857      19.34832481  T      -0.87707133      -0.81502346       1.92693803      -0.00085535      -0.00574333      -0.01098600      -9.16111374
Zr       3.35704462       1.52227911      17.17876806  T       0.06638003      -0.97890684       1.26485604      -0.01159884       0.00355404       0.04654333      -9.32721329
Zr       3.35769440       9.09454263      19.19808886  T      -1.01701667       1.55787451       1.84691557      -0.01698105      -0.02083920      -0.00829647      -9.14744568
Zr       5.04093178       6.79426252      21.10286258  T      -0.74314737      -1.56133469      -4.22122641       0.02562587       0.01574861      -0.02096063      -8.43061256
Zr       5.03302526       3.75169039      14.96724892  F       0.00000000       0.00000000       0.00000000       0.04937850       0.08890972       0.05150217      -8.43332958
Zr       3.35535026       1.49172723      12.73717785  F       0.00000000       0.00000000       0.00000000       0.00450987       0.06401819       0.49481994      -7.62871075
Zr       3.35535026       8.99510765      14.96724892  F       0.00000000       0.00000000       0.00000000      -0.00534579      -0.77293634       0.53070259      -7.37264585
Zr       5.03888496       6.83666366      17.03028977  T      -0.01741480      -1.24726325      -0.40262219      -0.00418386      -0.00832432       0.02124223      -9.20553684
Zr       8.42163112       3.75495320      19.48257204  T       0.71188474      -0.82234051      -0.16162759       0.00398207      -0.01291411       0.01301086      -8.99355793
Zr       6.71960535       1.53152092      17.17018885  T      -0.51436631      -2.23572475       0.98090298      -0.00492179      -0.00156616       0.04056051      -9.31739426
Zr       6.71691352       9.08779436      19.20304663  T      -0.14715756       1.41388058      -0.84741286       0.00500238      -0.02698728      -0.01751586      -9.16269207
Zr       8.40709742       6.67374283      21.40647753  T      -0.49445003      -2.73980108      -2.14685504       0.06948078      -0.04079783       0.01537580      -9.07115555
Zr       8.38837528       3.75169039      14.96724892  F       0.00000000       0.00000000       0.00000000       0.03771080       0.05971178      -0.04151401      -8.42235184
Zr       6.71070051       1.49172723      12.73717785  F       0.00000000       0.00000000       0.00000000      -0.01333821       0.08204389       0.49863607      -7.62963009
Zr       6.71070051       8.99510765      14.96724892  F       0.00000000       0.00000000       0.00000000       0.00564980      -0.76309496       0.49216208      -7.37440920
Zr       8.40379305       6.86271800      17.00243762  T       0.70442088      -0.66253929      -1.72492919      -0.00935020      -0.00212436       0.00416292      -9.17621613
Pd       1.64331517       1.04651237      19.21176801  T       0.50797314       0.71811049      -1.34293534      -0.01201355       0.02601764      -0.05173832      -4.42767334
Pd       0.02802914       4.39234271      21.54944905  T       0.35816397      -1.48846555      -4.79530503      -0.00485949       0.03978770       0.00935492      -4.65110588
Pd      -0.04411662       6.14436493      19.30304899  T      -1.99987374      -0.02952500       1.79029207      -0.03415570      -0.01565126       0.00198065      -6.05145025
Pd       1.71470987       9.54289023      21.49579613  T      -0.91322146      -0.67039066       0.25691642      -0.00251282      -0.02678550       0.00817443      -5.12339115
Pd       1.67767513       0.92763877      14.96724892  F       0.00000000       0.00000000       0.00000000      -0.00611194       0.11157905      -0.75595987      -6.13705444
Pd      -0.02097071       4.37166210      17.14118248  T      -0.28844180       0.93224911       1.94464507       0.00904660       0.01756845       0.05581995      -6.08642960
Pd      -0.00000000       6.17105627      14.96724892  F       0.00000000       0.00000000       0.00000000       0.01180050       0.39751956      -0.36107779      -5.00225687
Pd       1.67333919       9.85178666      16.94206723  T       1.25482026       1.34762596      -2.17791642       0.00982797       0.01696602       0.00204422      -5.97744322
Pd       5.04220570       1.08551024      19.22332837  T       1.03343530       1.95878983      -2.15830629       0.01828070       0.01543675      -0.03416240      -4.41706085
Pd       3.44206702       4.60190064      21.54819521  T       0.67251736       2.32891894       0.89808851       0.01929980      -0.02890593       0.04401565      -4.36228895
Pd       3.28566417       6.11838154      19.18201505  T      -0.22818436      -1.29534912       2.06394464      -0.04844726       0.04010019      -0.02173239      -6.09310818
Pd       5.03639147       9.55303515      21.51374953  T      -1.15146205      -0.38366541      -2.11243436       0.00777071       0.00833040      -0.00378615      -5.15427732
Pd       5.03302526       0.92763877      14.96724892  F       0.00000000       0.00000000       0.00000000       0.01459059       0.10565735      -0.71102720      -6.14466333
Pd       3.32890361       4.33327137      17.09346872  T       0.63889842      -0.84022170       1.77565698       0.00751639       0.04148836       0.02433750      -6.08270836
Pd       3.35535026       6.17105627      14.96724892  F       0.00000000       0.00000000       0.00000000       0.01371443       0.50303507      -0.21070014      -4.99263906
Pd       5.03514505       9.85156302      16.93644090  T      -0.50566861       2.29428655      -2.33167151      -0.00768646       0.01015499       0.00667563      -5.97518253
Pd       8.41429807       0.99767157      19.19616308  T       1.97966701       1.45417168      -4.27174551      -0.00212960       0.04240572      -0.03324080      -4.43764400
Pd       6.57949275       4.57500114      21.57846428  T       0.43766320       0.52069392      -0.53356121      -0.00437897       0.01744933       0.00720741      -4.34894657
Pd       6.85363242       6.13192303      19.22848730  T      -0.37013642       0.12630223       2.28599385      -0.00385739       0.01661899      -0.02279172      -6.10579824
Pd       8.35744927       9.49899199      21.47806004  T       0.25999071      -0.64385887      -0.12858295      -0.00477558       0.03248308       0.01304014      -5.15922689
Pd       8.38837528       0.92763877      14.96724892  F       0.00000000       0.00000000       0.00000000       0.00442785       0.07575086      -0.73635894      -6.13535357
Pd       6.74957658       4.36119315      17.11953115  T       0.83729015       2.31249666       0.78936153       0.01212390      -0.00838965      -0.02560949      -6.09221745
Pd       6.71070051       6.17105627      14.96724892  F       0.00000000       0.00000000       0.00000000      -0.01682702       0.46559227      -0.26101226      -4.99488735
Pd       8.38950980       9.85366683      16.94360748  T       0.81829285       1.34932798      -2.78745360       0.00376766       0.02395566       0.00697950      -5.97755098
O        0.07489937       6.28089564      22.72621514  T      -0.00549330       1.82988828       0.17543606      -0.05535477      -0.04207668      -0.05509180      -8.45207310
H        0.13114621       6.17972274      23.68593544  T      -0.07818928      -0.25571681       0.14188188      -0.02761199       0.07439204      -0.02483523      -3.09319186
