50
Lattice="10.06605052947998 -0.0 -6.000000233523199e-16 2.9999999050033628e-15 10.486835479736328 4.460142135620117 -0.0 3.79999986555371e-15 31.220993041992188" Properties=species:S:1:pos:R:3:move_mask:L:1:momenta:R:3:forces:R:3:energies:R:1 adsorbate_info="_JSON {\"site\": {\"coordinates\": [2.516512695, 5.525461675000001, 21.65746117], \"connectivity\": 2, \"topology\": [3, 33], \"n_vector\": [-0.03881628134958803, -0.01995091331211885, 0.9990471747421149], \"h_vector\": [-0.5698365347163358, 0.8217580688392894, 0.0], \"site_formula\": {\"Zr\": 1, \"Pd\": 1}}, \"smiles\": \"S1S\", \"mdf\": 1.7780460151995172, \"adsorbate_formula\": \"HO\"}" bond_change_count=0 energy=-348.525390625 stress="0.0004348420479800552 2.8012079837935744e-06 -1.4805057617195416e-05 2.8012079837935744e-06 0.00041514544864185154 0.0001236568932654336 -1.4805057617195416e-05 0.0001236568932654336 0.00013564132677856833" free_energy=-348.525390625 pbc="T T F"
Zr       1.65710617       3.76164798      19.58728629  T      -0.28823579      -0.43879212      -0.33909226       0.00862712       0.01042175      -0.00064018      -8.90707397
Zr       0.01919135       1.53642346      17.19449140  T       1.22397503      -1.15891066       2.30596546      -0.00573893       0.02057172      -0.03332731      -9.31885624
Zr      -0.00157738       9.09724514      19.20576932  T      -1.29737987       1.36543182       0.29022253       0.00605796       0.02010560      -0.02766991      -9.15029335
Zr       1.66575730       6.64668262      21.45774544  T      -0.14886171       0.56814763      -1.31681645      -0.07152569       0.02935812      -0.00793943      -9.46848869
Zr       1.67767513       3.75169039      14.96724892  F       0.00000000       0.00000000       0.00000000       0.06323714       0.00858127      -0.12264434      -8.41617775
Zr      -0.00000000       1.49172723      12.73717785  F       0.00000000       0.00000000       0.00000000      -0.01503314       0.09944075       0.49643195      -7.62863684
Zr      -0.00000000       8.99510765      14.96724892  F       0.00000000       0.00000000       0.00000000       0.01542845      -0.74822605       0.49306527      -7.37435579
Zr       1.68058972       6.88957411      16.98930501  T       0.24274578      -0.34824202      -2.25319006       0.00935971      -0.04730513       0.00977348      -9.17131615
Zr       4.93837639       3.78257903      19.38727695  T      -1.35153375      -1.67623185       1.45103313       0.03738481       0.01106874      -0.00453264      -9.07855892
Zr       3.34635613       1.50105765      17.19169405  T      -1.21285311      -0.49560424       0.61694818       0.01220202       0.03297518      -0.02821857      -9.29383659
Zr       3.34396460       9.07192515      19.23698628  T      -0.82551696      -1.41279151       3.06618398       0.00065469       0.01569795      -0.01859099      -9.11715126
Zr       4.96867159       6.78443706      21.26485967  T      -0.33531681       0.76955961      -0.30113134       0.06037220      -0.04681497       0.01073135      -8.69149208
Zr       5.03302526       3.75169039      14.96724892  F       0.00000000       0.00000000       0.00000000      -0.17183103       0.04770375       0.02185857      -8.42002106
Zr       3.35535026       1.49172723      12.73717785  F       0.00000000       0.00000000       0.00000000       0.00662729       0.11046565       0.52032292      -7.62540817
Zr       3.35535026       8.99510765      14.96724892  F       0.00000000       0.00000000       0.00000000      -0.02878714      -0.71214867       0.40465280      -7.37074614
Zr       4.98486528       6.87335371      16.99829105  T       0.25425494       1.09522631      -1.94449022      -0.00287800      -0.03037496      -0.01005346      -9.17945862
Zr       8.36673222       3.90100701      19.30326095  T      -1.32440014       1.16820665       0.49523188      -0.01049209      -0.00925374       0.02271691      -9.18035603
Zr       6.71618336       1.54508534      17.16397440  T      -0.75503622       0.75952776       1.27018905      -0.01038486       0.00869938      -0.01567632      -9.33491802
Zr       6.69447017       9.10231711      19.17449501  T       0.15064321       1.35366181       1.82297020      -0.00714479       0.01656462      -0.00566650      -9.17061520
Zr       8.33490510       6.86254788      21.01843640  T      -0.94267618       0.78830350      -0.17866995      -0.01181887      -0.04687662       0.06633924      -8.50080013
Zr       8.38837528       3.75169039      14.96724892  F       0.00000000       0.00000000       0.00000000       0.06441954       0.10769618       0.10839653      -8.42993355
Zr       6.71070051       1.49172723      12.73717785  F       0.00000000       0.00000000       0.00000000       0.00959614       0.09138983       0.49517545      -7.63388395
Zr       6.71070051       8.99510765      14.96724892  F       0.00000000       0.00000000       0.00000000      -0.01743064      -0.76811546       0.53428686      -7.37938356
Zr       8.39163519       6.83676171      17.03831130  T      -0.00476964       0.15084055      -0.95850398       0.00404701      -0.01348267      -0.01304704      -9.20647621
Pd       1.67659948       1.00173962      19.21565771  T      -2.81894757       0.90573260       0.42592605      -0.00020249       0.00824702       0.00151473      -4.43043804
Pd      -0.29691771       4.62714235      21.58658947  T      -1.71693603       2.70354002      -2.51080320       0.01869348      -0.00392105      -0.00405321      -4.32828522
Pd       0.14470196       6.13673175      19.21428736  T      -1.72379361      -1.88943378       2.35812814      -0.02185348      -0.00982364      -0.03519147      -6.10988140
Pd       1.62458682       9.48549672      21.48991676  T      -0.54665777       0.41558964       0.05655351      -0.00047595       0.00829322       0.00383736      -5.14795971
Pd       1.67767513       0.92763877      14.96724892  F       0.00000000       0.00000000       0.00000000       0.02395154       0.09112604      -0.62865311      -6.13266754
Pd       0.07958581       4.34797522      17.11879896  T      -1.42261432       0.54491616       1.04824486      -0.01145256       0.01918639       0.01483208      -6.08859491
Pd      -0.00000000       6.17105627      14.96724892  F       0.00000000       0.00000000       0.00000000      -0.05809001       0.44961351      -0.25095475      -4.99570274
Pd       1.68260552       9.85884938      16.95474741  T       1.05222765       2.02207580      -2.55929604       0.00193258      -0.00628048      -0.01465817      -5.98169994
Pd       5.06229539       1.04580771      19.22523746  T       0.77861248       2.95427037       0.39522882       0.00260683       0.00028437      -0.02634171      -4.42314243
Pd       3.56051147       4.41687317      21.57698138  T       2.19251575       0.97718158      -1.78671361      -0.02248916      -0.01762116       0.01998207      -4.69756460
Pd       3.21296751       6.13276296      19.30934778  T      -0.50742184      -0.82317451      -0.09270055       0.03411077       0.01629400      -0.00955269      -6.07896614
Pd       5.12188141       9.56235591      21.51030041  T      -0.36636356       0.98160027      -1.68795248      -0.00837338       0.00552670      -0.00138792      -5.16131163
Pd       5.03302526       0.92763877      14.96724892  F       0.00000000       0.00000000       0.00000000      -0.09458178       0.14820334      -0.70621479      -6.13921833
Pd       3.28076187       4.36187278      17.15512536  T      -1.39117607       0.52932564      -0.76091644       0.01910651       0.00072567      -0.01869237      -6.08450794
Pd       3.35535026       6.17105627      14.96724892  F       0.00000000       0.00000000       0.00000000      -0.03418768       0.33936900      -0.39039081      -5.00409031
Pd       5.02431527       9.85814871      16.94293728  T       0.19438515       1.17127563      -1.38056167      -0.00216407      -0.00700790      -0.00037096      -5.97640562
Pd       8.38038117       1.14502292      19.23883841  T      -2.00297707       0.48614915      -1.45091901       0.00564054      -0.01631635      -0.01532516      -4.44274902
Pd       6.72796458       4.63737294      21.51654168  T       0.83026203       3.80491038       0.11195290       0.01078830       0.04167594      -0.02291026      -4.42909002
Pd       6.53506037       6.16089508      19.15659879  T       0.21976696       0.60247128       0.34536879      -0.00499366      -0.04349912       0.04104568      -6.11001301
Pd       8.37325538       9.59518006      21.53671845  T       1.87542425       0.65890244      -0.61468186       0.00439273       0.00510673      -0.01090104      -5.13848639
Pd       8.38837528       0.92763877      14.96724892  F       0.00000000       0.00000000       0.00000000       0.04130881       0.14345320      -0.72372758      -6.14741707
Pd       6.66181042       4.36162376      17.08391753  T       0.15544251      -0.19359337      -1.32051620       0.01324598       0.02631514       0.07280808      -6.08546686
Pd       6.71070051       6.17105627      14.96724892  F       0.00000000       0.00000000       0.00000000       0.00141280       0.55709982      -0.22255419      -4.98324108
Pd       8.39121567       9.85642577      16.93262760  T      -0.04330237      -0.01315527      -1.12436976       0.00341446      -0.01242036      -0.00467215      -5.97342587
O        3.09282509       6.12364790      22.86849582  T      -0.39685256       1.09029141       0.16001800       0.07907164       0.02419861      -0.00613129      -8.25685406
H        2.99678750       5.89201955      23.80257618  T       0.42497572       0.14010502       0.27520035       0.05423857       0.02402921       0.04291898      -3.12984324
