50
Lattice="10.06605052947998 -0.0 -6.000000233523199e-16 2.9999999050033628e-15 10.486835479736328 4.460142135620117 -0.0 3.79999986555371e-15 31.220993041992188" Properties=species:S:1:pos:R:3:move_mask:L:1:momenta:R:3:forces:R:3:energies:R:1 adsorbate_info="_JSON {\"site\": {\"coordinates\": [5.033025384999999, 4.31577873, 21.657461169999998], \"connectivity\": 2, \"topology\": [33, 41], \"n_vector\": [-0.06482098597459586, 0.18079162590981496, 0.9813830178774068], \"h_vector\": [-1.0, 0.0, 0.0], \"site_formula\": {\"Pd\": 2}}, \"smiles\": \"S1S\", \"mdf\": 1.9001591708390082, \"adsorbate_formula\": \"HO\"}" bond_change_count=0 energy=-348.1750793457031 stress="0.00041006258106790483 3.1738343864162744e-07 -2.081395109598816e-07 3.1738343864162744e-07 0.0004238270048517734 0.00012197824980830774 -2.081395109598816e-07 0.00012197824980830774 0.0001239431876456365" free_energy=-348.1750793457031 pbc="T T F"
Zr       1.71349128       3.84018002      19.33677717  T       0.25476925       1.07574735       0.10279112      -0.02156903      -0.02548966      -0.01598337      -9.14432335
Zr       0.00060212       1.51144999      17.17130260  T      -0.24162699      -0.35804598       2.30512790      -0.00171270      -0.00013448       0.01942965      -9.32751942
Zr      -0.00028910       9.10959088      19.17204859  T      -0.32282682       0.80063710       0.28806565       0.00306725      -0.03476654       0.00559331      -9.19164181
Zr       1.67926289       6.80953558      21.09656549  T      -0.52210720      -2.02029796      -1.97566616      -0.00400025       0.02397469       0.01775476      -8.41409397
Zr       1.67767513       3.75169039      14.96724892  F       0.00000000       0.00000000       0.00000000       0.15027024       0.08065329       0.05290097      -8.42619228
Zr      -0.00000000       1.49172723      12.73717785  F       0.00000000       0.00000000       0.00000000      -0.00910932       0.07527167       0.48212111      -7.63047314
Zr      -0.00000000       8.99510765      14.96724892  F       0.00000000       0.00000000       0.00000000      -0.00361189      -0.78170788       0.54780006      -7.37628698
Zr       1.71130117       6.84306812      17.01398849  T       0.96670638       0.06471046      -1.98955224      -0.02460450       0.01012937       0.02075988      -9.19805813
Zr       5.03144130       3.73835744      19.61965698  T       1.38295826      -0.95247803      -0.14312227       0.00837240      -0.01344748       0.00835250      -8.83841610
Zr       3.37341770       1.53761329      17.16225658  T      -0.07481075      -0.88991684       1.13332071      -0.00053206       0.01340300       0.01356196      -9.30401993
Zr       3.35700041       9.08750277      19.20640683  T      -0.44603352       1.56739033       0.58438004      -0.00070159      -0.02610184       0.00676133      -9.15286255
Zr       5.03367075       6.55706715      21.49951188  T      -0.71581860      -2.68027321      -1.02458198       0.00491929       0.03968096      -0.08455804      -9.68872261
Zr       5.03302526       3.75169039      14.96724892  F       0.00000000       0.00000000       0.00000000       0.00231344       0.03094761      -0.15053046      -8.41279793
Zr       3.35535026       1.49172723      12.73717785  F       0.00000000       0.00000000       0.00000000      -0.01045360       0.10903060       0.49681374      -7.62917852
Zr       3.35535026       8.99510765      14.96724892  F       0.00000000       0.00000000       0.00000000       0.02010027      -0.73754215       0.43143985      -7.37451077
Zr       5.03410657       6.87601394      16.98863404  T       1.51608312       1.81174260      -0.98555931       0.00073477      -0.00210739       0.01394263      -9.16723728
Zr       8.35410887       3.84309146      19.33946615  T      -0.74493078       0.45693321      -0.04164027       0.01132095      -0.03321240      -0.01494786      -9.13188553
Zr       6.69345868       1.52693067      17.17076254  T      -0.77820615      -1.72003781       0.38112909      -0.00173913       0.01451275       0.01782733      -9.30083847
Zr       6.70949372       9.08544953      19.20812559  T      -0.84693643       0.78647855      -0.36488538      -0.00572506      -0.02471475       0.01242177      -9.15103149
Zr       8.38409932       6.80052826      21.08937316  T       0.62807596      -0.46152466      -0.41116310      -0.00767812       0.01573469       0.03139612      -8.39854336
Zr       8.38837528       3.75169039      14.96724892  F       0.00000000       0.00000000       0.00000000      -0.14516340       0.07573473       0.06930122      -8.42553043
Zr       6.71070051       1.49172723      12.73717785  F       0.00000000       0.00000000       0.00000000       0.02070738       0.10090175       0.49832869      -7.62780094
Zr       6.71070051       8.99510765      14.96724892  F       0.00000000       0.00000000       0.00000000      -0.01478974      -0.74117792       0.43932763      -7.37252998
Zr       8.35521346       6.83532318      17.01862247  T       0.48064754      -0.36840906      -1.25385386       0.02173756       0.01978684       0.01287654      -9.19736576
Pd       1.71110291       1.07702489      19.21029248  T       0.89365723      -1.02401696      -0.50279740       0.02141546       0.01197952       0.00643620      -4.42384338
Pd       0.00392252       4.65113405      21.50028473  T       0.12372511       0.94133468      -0.08967716      -0.00084161      -0.01277292       0.05658823      -4.48732901
Pd       0.00488792       6.14329087      19.11667479  T      -0.54967175      -0.79939148       0.84250534       0.00655424      -0.00606456      -0.02168296      -6.09903765
Pd       1.65557470       9.55953039      21.51175301  T       0.95829128      -0.17665893      -2.35635644       0.00860848      -0.00288530      -0.00106184      -5.15491533
Pd       1.67767513       0.92763877      14.96724892  F       0.00000000       0.00000000       0.00000000       0.05200083       0.13397485      -0.73503357      -6.14381599
Pd       0.00407098       4.33197761      17.07594268  T       0.39156502       2.52567454      -1.63048328      -0.00746242       0.01568289      -0.00634349      -6.08024025
Pd      -0.00000000       6.17105627      14.96724892  F       0.00000000       0.00000000       0.00000000      -0.00456429       0.54509723      -0.18482827      -4.98595524
Pd       1.68515938       9.85418038      16.93540493  T       0.24171408       1.96135348      -2.14958035      -0.00425624       0.01486495      -0.00097546      -5.97355509
Pd       5.01987130       0.98427980      19.18772242  T      -0.28486663       0.06586093      -0.36681102      -0.00033395       0.02339795      -0.00062770      -4.44625092
Pd       3.04803322       4.49732350      21.59501603  T      -0.07613737       1.56296103      -1.05066437      -0.02268745       0.01160762       0.01474871      -4.61102819
Pd       3.51873961       6.11939193      19.28071362  T       0.26485971      -0.57658579       2.46029281       0.02259542       0.02117492       0.00467790      -6.08463192
Pd       5.02729141       9.46688486      21.47677251  T      -1.40054451      -1.67575226       0.33246027       0.00039078       0.03006205       0.00994532      -5.14780712
Pd       5.03302526       0.92763877      14.96724892  F       0.00000000       0.00000000       0.00000000       0.01025209       0.03911594      -0.70711923      -6.13184261
Pd       3.44396196       4.35995499      17.15072546  T       0.68137801       0.42799055      -1.49419940      -0.01197894      -0.00340658      -0.04669941      -6.08401537
Pd       3.35535026       6.17105627      14.96724892  F       0.00000000       0.00000000       0.00000000      -0.00235358       0.36692655      -0.34415931      -5.00519943
Pd       5.03353777       9.85580573      16.94860504  T       0.00479307       1.79583111      -2.02547823      -0.00062432       0.02896485      -0.00190035      -5.97957420
Pd       8.36941922       1.07487373      19.21010581  T       0.48069094      -0.66712557      -2.50086314      -0.01894785       0.00678213       0.00906041      -4.41540718
Pd       7.02911805       4.47631455      21.59970327  T      -1.13585546       2.17147566       2.17319721       0.01566886       0.01754551      -0.00360367      -4.69372892
Pd       6.53689046       6.11593855      19.28405635  T      -0.91262205      -1.59734075       0.13927250      -0.02876511       0.00780428       0.01197440      -6.08334923
Pd       8.41660712       9.55374725      21.50909077  T       0.22205617      -0.53113713      -0.16471896      -0.00527419      -0.00249033       0.00372069      -5.15289402
Pd       8.38837528       0.92763877      14.96724892  F       0.00000000       0.00000000       0.00000000      -0.05963282       0.13805598      -0.72064102      -6.14382553
Pd       6.62254094       4.35423691      17.15027246  T      -2.17495165       0.10080349      -0.65990106       0.01215166       0.00677729      -0.03899957      -6.08444977
Pd       6.71070051       6.17105627      14.96724892  F       0.00000000       0.00000000       0.00000000       0.00818939       0.36357597      -0.33556777      -5.00653791
Pd       8.38064540       9.85106066      16.93769635  T      -0.41265303       2.33887266      -0.97823637       0.00263614       0.02399069      -0.00960127      -5.97568846
O        5.11330360       4.98802606      22.79186483  T       0.45264385       0.30014094      -0.30514217       0.00470598      -0.02100056       0.08903542      -7.64829302
H        5.09522787       4.56531845      23.66103685  T       0.03598053       0.26458257       0.08626456       0.01040032       0.05187999       0.01996601      -3.24987769
