50
Lattice="10.06605052947998 -0.0 -6.000000233523199e-16 2.9999999050033628e-15 10.486835479736328 4.460142135620117 -0.0 3.79999986555371e-15 31.220993041992188" Properties=species:S:1:pos:R:3:move_mask:L:1:momenta:R:3:forces:R:3:energies:R:1 adsorbate_info="_JSON {\"site\": {\"coordinates\": [-5.973998954452065e-08, 6.735144620000001, 21.657461169999998], \"connectivity\": 2, \"topology\": [3, 19], \"n_vector\": [-0.021255130450277753, -0.0661090134422433, 0.9975859951759724], \"h_vector\": [-1.0, 0.0, 0.0], \"site_formula\": {\"Zr\": 2}}, \"smiles\": \"S1S\", \"mdf\": 1.936998301785486, \"adsorbate_formula\": \"HO\"}" bond_change_count=0 energy=-348.65606689453125 stress="0.0004732340748887509 2.0429727953796828e-07 -2.122214027622249e-06 2.0429727953796828e-07 0.000428409461164847 0.00013216433580964804 -2.122214027622249e-06 0.00013216433580964804 0.0001531743473606184" free_energy=-348.65606689453125 pbc="T T F"
Zr       1.65093077       3.80017719      19.43484075  T      -0.00934087       0.18458229       0.48155346       0.00688416      -0.03361869      -0.01100504      -9.06207180
Zr       0.00081722       1.54780545      17.13044439  T       0.88708312       0.28853471      -0.71667462      -0.00671582      -0.01259377       0.07546648      -9.28250694
Zr      -0.00058782       9.04999376      19.22328643  T       0.12489661       0.78531033      -0.21364325      -0.00328929       0.02403822       0.01894378      -9.09583473
Zr       1.59881861       6.70444418      21.48528726  T      -2.05352599      -1.46724329      -0.89430249      -0.00063920      -0.03003464       0.01283860      -9.30390072
Zr       1.67767513       3.75169039      14.96724892  F       0.00000000       0.00000000       0.00000000      -0.02456259       0.10482522       0.04574701      -8.41651249
Zr      -0.00000000       1.49172723      12.73717785  F       0.00000000       0.00000000       0.00000000       0.00165656       0.07833537       0.53255594      -7.62764168
Zr      -0.00000000       8.99510765      14.96724892  F       0.00000000       0.00000000       0.00000000      -0.00840709      -0.74017888       0.46382198      -7.37112474
Zr       1.66132482       6.85610390      17.00582851  T      -0.51755788      -1.52896855      -1.71684390      -0.00154657       0.00109575       0.00060081      -9.17791080
Zr       5.02010692       3.88398075      19.39355014  T      -0.87008911       0.34462084       1.41664689       0.00334245      -0.00881017      -0.01540928      -9.12871265
Zr       3.35875342       1.57584845      17.13579275  T      -1.20583453       0.74770251       0.16402414       0.00121543       0.00978633       0.05835274      -9.31111336
Zr       3.34383841       9.07183390      19.18503168  T       1.46431235       0.12016138      -0.65703474       0.00053287       0.02043318      -0.00432637      -9.16431808
Zr       5.01829455       6.77404182      21.14318855  T      -0.99059864      -0.86564497      -2.54834934       0.02022419      -0.02111889      -0.04638088      -8.44429493
Zr       5.03302526       3.75169039      14.96724892  F       0.00000000       0.00000000       0.00000000      -0.00493045       0.12524015       0.03596255      -8.42371082
Zr       3.35535026       1.49172723      12.73717785  F       0.00000000       0.00000000       0.00000000       0.00990782       0.06138420       0.50812531      -7.63098907
Zr       3.35535026       8.99510765      14.96724892  F       0.00000000       0.00000000       0.00000000      -0.00989861      -0.76738662       0.53676236      -7.37509966
Zr       5.03124431       6.82614888      17.06124882  T       1.31511077      -0.98212663       1.76376647       0.00079251       0.00263361      -0.01950037      -9.21090317
Zr       8.39840271       3.80314043      19.43289836  T       1.41588527      -0.85879775       1.25106799      -0.00755233      -0.03483017      -0.01246276      -9.05667496
Zr       6.70526720       1.56618281      17.15196682  T       0.49461354       0.85015728       1.29807749       0.00287782      -0.00105669       0.05111837      -9.30752373
Zr       6.71825031       9.07126622      19.18874176  T       1.08455497       0.28857228       0.07749882      -0.00064924       0.02377098      -0.00481138      -9.16331959
Zr       8.44536886       6.70313528      21.47846008  T       0.59532895      -0.43141440      -0.14854768       0.00083518      -0.03771202       0.01644328      -9.30514240
Zr       8.38837528       3.75169039      14.96724892  F       0.00000000       0.00000000       0.00000000       0.01569409       0.09689261       0.06430316      -8.41649151
Zr       6.71070051       1.49172723      12.73717785  F       0.00000000       0.00000000       0.00000000      -0.01188196       0.06613484       0.50799847      -7.62983418
Zr       6.71070051       8.99510765      14.96724892  F       0.00000000       0.00000000       0.00000000       0.01409228      -0.77056170       0.54325378      -7.37327862
Zr       8.40095954       6.85298491      17.01043958  T       0.76945261       1.91750167      -0.70450580      -0.00455127       0.00209819      -0.00904511      -9.17783833
Pd       1.68501383       1.05335003      19.17470255  T       0.16929914       1.05515233      -2.05073464       0.00065928      -0.00517851      -0.03148213      -4.43673325
Pd      -0.00915718       4.35262394      21.52822919  T      -0.10551197      -0.14719880      -1.20346774      -0.00126350       0.03456777       0.01978511      -4.34057999
Pd      -0.00693204       6.15439766      19.34627032  T      -2.59622893      -0.57385170       1.05837303       0.00416393       0.00519989      -0.05152169      -6.07462740
Pd       1.75269112       9.53061434      21.47107941  T      -0.13822354       0.09935882      -1.79168774       0.03677319      -0.00073038       0.03348826      -5.14096737
Pd       1.67767513       0.92763877      14.96724892  F       0.00000000       0.00000000       0.00000000      -0.02425140       0.07429729      -0.83877593      -6.13455439
Pd      -0.00132008       4.39818371      17.15786050  T      -1.32197827       0.55154527       1.21897536      -0.00124272      -0.03942113      -0.00249025      -6.09270239
Pd      -0.00000000       6.17105627      14.96724892  F       0.00000000       0.00000000       0.00000000      -0.01141936       0.40315199      -0.35219005      -5.00509644
Pd       1.67295511       9.85008377      16.94526443  T      -0.43713339      -0.31578816      -1.87574731      -0.00730980       0.03221734       0.00049180      -5.97945786
Pd       5.01381204       1.09222988      19.18171540  T      -0.11070819       2.12748926      -1.48337449      -0.00436505       0.05763383      -0.02443287      -4.43284035
Pd       3.41535669       4.60119668      21.60740915  T       1.95670473       2.74042081      -1.00201963       0.03749418       0.00643739      -0.01949097      -4.35165358
Pd       3.18753664       6.17169613      19.27119176  T      -2.13384687       1.23921027       2.13538765      -0.01392408       0.00841638      -0.02603766      -6.09663343
Pd       5.02580178       9.53984861      21.47495750  T      -1.77093814       1.57764215       0.17248346       0.00231508       0.02013246       0.08333229      -5.16210318
Pd       5.03302526       0.92763877      14.96724892  F       0.00000000       0.00000000       0.00000000       0.01419830       0.07720108      -0.83765066      -6.14223719
Pd       3.34545057       4.40261799      17.13861224  T       0.71668599       1.18881258       0.82441467      -0.02187073      -0.03780769      -0.01520211      -6.10457230
Pd       3.35535026       6.17105627      14.96724892  F       0.00000000       0.00000000       0.00000000       0.04084671       0.51043248      -0.21167338      -4.99351931
Pd       5.03349158       9.84802071      16.93476820  T      -0.45849120       1.24529344      -1.93609323      -0.00078728       0.03271867      -0.00633065      -5.97637939
Pd       8.40203920       1.04996941      19.17710702  T       0.30096686       1.01362328      -0.91224201       0.00115080       0.00088799      -0.02847835      -4.42316580
Pd       6.62486257       4.60325885      21.60557741  T      -1.78737550       0.99177503      -0.73202156      -0.03616741       0.00558540      -0.02133069      -4.34942532
Pd       6.85060036       6.16806942      19.26824759  T      -0.43166983      -0.94380044      -1.07659173       0.02097233       0.01520861      -0.02402561      -6.09612417
Pd       8.31510072       9.52911417      21.46827040  T       0.36774056       0.60092215       0.16801848      -0.03301502       0.01041180       0.04629324      -5.13993597
Pd       8.38837528       0.92763877      14.96724892  F       0.00000000       0.00000000       0.00000000       0.00596047       0.09045236      -0.81228364      -6.13481808
Pd       6.70974604       4.39652645      17.13618328  T       0.43912659       1.13785436      -2.38211051       0.03354715      -0.03766462      -0.01418534      -6.10397530
Pd       6.71070051       6.17105627      14.96724892  F       0.00000000       0.00000000       0.00000000      -0.04250291       0.51050353      -0.19912973      -4.99395990
Pd       8.39231493       9.85213450      16.94710446  T      -0.33564226       2.98823179      -1.68180260       0.00781299       0.00764018      -0.00694772      -5.98015213
O       -0.01328626       6.75521616      22.88487922  T      -0.28415816       1.31405994      -1.44375163      -0.00348324       0.01084408      -0.07848138      -8.30360317
H       -0.01743505       7.13404584      23.77294027  T      -0.00026242      -0.56456925       0.32713249       0.00227689       0.04809554       0.06939626      -3.20937157
