82
Lattice="15.482664108276367 0.0 9.000000350284799e-16 -3.941528797149658 14.972549438476562 -3.978878974914551 0.0 0.0 31.831031799316406" Properties=species:S:1:pos:R:3:move_mask:L:1:momenta:R:3:forces:R:3:energies:R:1 adsorbate_info="_JSON {\"site\": {\"coordinates\": [12.0589695, 0.96779203, 17.2086525], \"connectivity\": 1, \"topology\": [17], \"n_vector\": [0.21955954287948815, 0.8242559561426073, 0.5219154394094762], \"h_vector\": [1.0, 0.0, 0.0], \"site_formula\": {\"Co\": 1}}, \"smiles\": \"Cl\", \"mdf\": 1.7392287869887733, \"adsorbate_formula\": \"HN\"}" bond_change_count=0 energy=-533.8023071289062 stress="0.0002971995563711971 8.050894393818453e-06 -2.081600086967228e-06 8.050894393818453e-06 0.00026277280994690955 -6.091834438848309e-05 -2.081600086967228e-06 -6.091834438848309e-05 5.204127592151053e-05" free_energy=-533.8023071289062 pbc="T T F"
Co       2.34042918       8.42686525      12.92041223  T       1.32816905      -0.34582654      -1.49841211       0.00170596       0.00583855       0.02632019      -6.57004166
Co      12.14184109       0.96538665      13.10826170  T       0.20925529      -0.20146293       1.10638697      -0.00979175      -0.00856352       0.00635123      -5.68440580
Co       9.69658852      11.82328224      11.24033356  F       0.00000000       0.00000000       0.00000000       0.16586073       0.11652640      -1.06673753      -6.44279146
Co       3.92602110       4.33700800      11.24033356  F       0.00000000       0.00000000       0.00000000      -0.08756175      -0.44310901       0.00190237      -5.54391813
Co      11.70440102      10.55078983      11.24033356  F       0.00000000       0.00000000       0.00000000      -0.06760894       0.36004168      -0.46761644      -5.68440485
Co       5.93383265       3.06451464      11.24033356  F       0.00000000       0.00000000       0.00000000      -0.14999454       0.48237532       0.27228957      -4.98049021
Co      11.03095810       4.83318907      12.86330912  T       0.14075274      -1.57000611      -2.13743960      -0.02276897      -0.00383551       0.00001577      -6.64361572
Co       1.22387576      12.38704586       9.25089359  F       0.00000000       0.00000000       0.00000000       0.17631641       0.57974708       0.34250048      -5.02369499
Co      -0.16326515       4.42176008      11.24033356  F       0.00000000       0.00000000       0.00000000       0.16267569      -0.18799675       0.33598861      -5.25004053
Co       5.60730267      11.90803528      11.24033356  F       0.00000000       0.00000000       0.00000000       0.23738471       0.23996146      -1.08230495      -6.30499887
Co       0.49214382      10.00008506      13.00924134  T       0.15233738      -1.27290996      -1.39142831       0.00909950      -0.00546049       0.00410664      -6.63925123
Co      10.37519709       2.46885636      12.89082334  T       1.31931696      -0.09276519      -0.78706344       0.00205942       0.01921045       0.01704670      -6.21675587
Co       9.17457321       6.44075107      12.86255999  T      -1.32499289       1.48670176      -2.52319410       0.00206387      -0.00485395       0.01904455      -6.60702276
Co      -0.51783448      14.00475788       9.25089359  F       0.00000000       0.00000000       0.00000000      -0.03691798      -0.37747356       0.27074239      -5.37411070
Co       1.84454656       3.14926696      11.24033356  F       0.00000000       0.00000000       0.00000000      -0.01974724       0.89571083      -0.07448347      -5.01761341
Co       7.61511421      10.63554192      11.24033356  F       0.00000000       0.00000000       0.00000000       0.06576943       0.29779470      -0.40105799      -5.78871870
Co       2.49953670       8.47079156      16.77254392  T       2.00890407       1.33490482      -1.45947009      -0.00492402       0.01310352      -0.00815152      -5.42829466
Co      12.21335286       0.98489506      17.31317262  T      -0.41821338      -0.76289637      -1.03010411      -0.00434464      -0.02509662       0.02704328      -6.53100967
Co       9.68614716      11.56681105      15.22338949  T      -0.84260359      -1.26925903       1.80713735      -0.01556557      -0.00820196       0.01645771      -5.89480114
Co       3.94415874       4.40528744      15.24369714  T       0.50628214      -2.00344114       2.30546922      -0.00199704      -0.00072975       0.01832853      -6.63180542
Co      11.60753112      10.30365441      15.28893631  T       0.30060888      -0.98705581       1.74551672       0.02657150      -0.01215390       0.00264254      -6.26509047
Co       6.02464356       3.07460862      15.21240482  T      -0.53515217      -0.21828953       2.06453282       0.00504875      -0.00375059       0.00203179      -6.57181549
Co      10.72530995       4.80183138      16.92632719  T      -0.42003272      -1.22971785      -0.30885854       0.03584549      -0.03838081       0.00016023      -5.67946291
Co       1.36997820      12.39432652      13.16762563  T      -0.07638706       0.98432314       0.80240891      -0.00432725      -0.01651954      -0.00442308      -6.66572142
Co      -0.22345388       4.41233143      15.29866483  T      -0.26343376       1.00186273       1.72295318      -0.00809428       0.00135340       0.00380346      -6.56540585
Co       5.63410346      11.94795223      15.15252171  T      -0.46650038       0.17812365       0.73779815      -0.00089177       0.00395739       0.00866000      -5.74610472
Co       0.56971471       9.72513369      16.76519384  T      -0.77464932      -1.19545678      -1.78160399      -0.00023979       0.00696811      -0.00495200      -5.24358463
Co      10.40534443       2.53105471      17.08516831  T      -0.59040584      -0.35632904       0.30890228       0.02490426       0.01096573       0.00723864      -5.98491192
Co       9.06414567       6.40562549      16.75063834  T       1.28134180       0.24865936       0.13453555      -0.02068896       0.02600865      -0.00338675      -5.52764463
Co      -0.48266633      14.00992770      13.24239426  T      -0.22015172       1.46224962       2.40656274       0.00552177      -0.02693108      -0.02583006      -6.53851175
Co       1.86196882       3.10169063      15.28409458  T      -0.24112703       0.12980265       0.11523149      -0.00928894      -0.02304203       0.00481729      -6.61785793
Co       7.57626209      10.67581330      15.27825489  T       0.25221664      -0.07735121       1.65676278       0.02302409      -0.01007427       0.01135452      -6.46951056
Y        9.60171960       9.67436639      13.17129512  T       1.25167622      -0.88634463       0.06615488      -0.00234210       0.00099272      -0.00014197      -7.47932720
Y        3.74095923       2.04068272      13.16379972  T       0.60833488      -0.03634234      -0.13143419       0.00835583      -0.00146390      -0.00381639      -7.51667404
Y       12.35783672       3.26628304      11.24033356  F       0.00000000       0.00000000       0.00000000       0.36572117      -0.25464344       0.10071076      -6.89736271
Y        2.64574003      10.75255775      11.24033356  F       0.00000000       0.00000000       0.00000000      -0.11948130       0.26563123      -0.12584740      -7.04437923
Y       -2.35488428       9.24990990      13.25601508  T      -0.32257155      -0.08137284       0.52787428      -0.00409997      -0.00373037      -0.00722035      -6.66678524
Y        7.34928000       1.73082696      13.23946389  T      -0.68842184       0.40806117       0.69328488      -0.01019561      -0.00156764      -0.01388380      -6.65026760
Y       13.84634287       5.60093684      13.27287581  T       0.69418131      -1.33378990       0.08059956       0.01200396       0.02038486      -0.00210011      -6.68079805
Y        4.16964054      13.17344666       9.25089359  F       0.00000000       0.00000000       0.00000000      -0.33151716      -0.41613442       0.57334441      -6.10985708
Y       11.14714432       6.98271179      11.24033356  F       0.00000000       0.00000000       0.00000000       0.20922862       0.08863768      -0.17765230      -6.63594055
Y        1.43504775      14.46898651      11.24033356  F       0.00000000       0.00000000       0.00000000       0.13453770      -0.01432769      -0.09300122      -7.27513981
Y       -0.81670117      11.70626640      11.24033356  F       0.00000000       0.00000000       0.00000000      -0.21664220      -0.00605718      -0.20956481      -7.32861757
Y        8.89539528       4.21999168      11.24033356  F       0.00000000       0.00000000       0.00000000      -0.26192316      -0.16463819      -0.02376072      -6.84624481
Y        3.93658876       7.38591671      11.24033356  F       0.00000000       0.00000000       0.00000000      -0.00609235      -0.60193074      -0.24972790      -6.35352087
Y        9.70715618      14.87219143      11.24033356  F       0.00000000       0.00000000       0.00000000      -0.09882401      -0.29437310       0.09660625      -6.61474895
Y        0.39399123       7.98983765      11.24033356  F       0.00000000       0.00000000       0.00000000      -0.22981784      -0.28658172      -0.06153766      -6.71376038
Y       10.23125788       0.42082294      15.18333557  T      -0.49336105       0.03908888      -0.82494867      -0.00631541       0.00753301      -0.00044757      -7.10067844
Y       -0.11409824       2.30042882      13.26611361  T      -1.16963334       1.08623237       2.36241826       0.01466040       0.00594424      -0.00226592      -7.15932417
Y        5.66189306       9.96529985      13.20927565  T       0.70086056       0.96626040       0.36208257      -0.00994011       0.00652982       0.01035607      -7.17906094
Y       11.65617561      12.55751133       9.25089359  F       0.00000000       0.00000000       0.00000000      -0.05011977      -0.24074690       1.22766781      -6.29425001
Y        5.89604287       4.99092551      13.19122122  T       0.24210543       0.14514910       0.89957258       0.00823287      -0.00893830       0.02977167      -7.24092388
Y        7.60454655       7.58663273      11.24033356  F       0.00000000       0.00000000       0.00000000      -0.05581709       0.43052459      -0.35293293      -6.29833603
Y        1.83943526       0.05327252      15.26498794  T       0.10132435      -0.92909722      -0.30241752      -0.01728290      -0.00588774       0.00325733      -6.69726181
Y        1.94096116       5.23467795      13.18878301  T      -0.33206062       0.19985857      -1.15154629      -0.00179222      -0.00830229       0.01059056      -7.53155708
Y        7.75397968      12.78219700       9.25089359  F       0.00000000       0.00000000       0.00000000       0.23746845      -0.17757609       0.91567695      -6.62094116
Y        9.49129519       9.43647075      16.91291957  T       1.50928177       1.70615352      -1.36585663      -0.01221419      -0.00521038       0.01230829      -6.93422937
Y        3.88565510       2.25834239      16.97734403  T       0.28449314      -0.55337706      -0.28395874       0.00420529       0.01090287       0.00882696      -6.82912350
Y       12.30057316       3.10337772      14.96821417  T      -0.53093430      -2.57889448      -0.58220153      -0.01927716      -0.00106591       0.01647962      -7.42877579
Y        2.69820061      10.73440536      14.97254813  T      -0.81942976      -1.37457712      -0.08332668       0.00582288      -0.02375910      -0.00905778      -7.23442650
Y       -2.12314911       9.22327451      16.92864486  T       0.55270797      -0.78010607      -0.74111006      -0.00866300      -0.01244959       0.00997768      -6.29427338
Y        7.63885264       1.96186385      16.99440635  T       1.49153623      -0.71551215       0.08972165       0.01010152      -0.00572093       0.00628601      -6.43371296
Y       13.53260715       5.50285277      16.97351758  T      -1.85622812       2.17160825      -1.75347699      -0.00587721      -0.01808253       0.00144179      -6.32879925
Y        4.19556592      13.20625689      13.00510702  T       0.42430726      -1.68316874      -0.39136641      -0.00294571      -0.00914523      -0.02201036      -6.66056728
Y       11.10813767       6.98575530      14.93926511  T       0.20819692       0.15387913      -0.97245458      -0.00415776      -0.01587476      -0.02304038      -7.17303658
Y        1.53625192      14.35695553      14.90560229  T      -1.20465879       0.13795756      -1.42424493       0.01273813      -0.00264016       0.01762887      -6.53483582
Y       -0.69015021      11.59634161      14.97214416  T       2.01650319      -0.56957001      -0.57496595      -0.00812820      -0.00392494       0.00149444      -6.92673111
Y        8.93612091       4.20595783      14.87286518  T       0.74732694      -1.33788554      -1.33612131       0.00917652       0.00550630      -0.00929644      -7.47924042
Y        3.97807417       7.33783377      14.80271465  T       0.93753145      -1.14798032      -2.66413093      -0.01092136       0.01057296       0.00831348      -6.64730453
Y        9.72229952      14.27244401      15.33289806  T       2.54701060      -3.54425284       0.37160137      -0.02444746       0.01431972       0.02096995      -6.94596386
Y        0.37921297       7.85994091      14.88221286  T       0.22377183      -2.89825806      -0.69942717      -0.00501612      -0.00182869       0.00897513      -7.21029472
Y       10.11544178       0.26771911      18.99838505  T       2.18040581       0.84966549      -1.02742616       0.09104645       0.00478917       0.00870539      -7.12300968
Y       -0.13203045       2.40958231      17.00680378  T      -0.53606014       0.72037813      -1.55638977       0.00117733      -0.00105456       0.01187113      -6.69895458
Y        5.50512939       9.84580944      16.79594326  T      -1.36413489      -0.85758748      -3.78862480       0.00619227      -0.01509554       0.00284703      -6.59681606
Y       11.68964560      12.48559860      13.11257531  T       0.83708793      -1.41240059      -0.41725990      -0.02062001      -0.02189187       0.00229885      -7.16621494
Y        6.06086959       5.22174698      16.84531429  T      -0.57875235       0.15005315      -0.26392565      -0.00980975      -0.02300618       0.00197408      -6.68957233
Y        7.57797413       7.62315200      14.78270724  T      -0.01657772       0.95926821      -0.56193479       0.01670435      -0.01322015       0.00633926      -6.60303593
Y        1.95805203       0.00769199      18.93745120  T       1.15264326       1.29813221      -3.42609791      -0.00494894      -0.00776926       0.01151213      -5.99032497
Y        1.99226813       5.39239748      16.90075355  T       1.54082820       0.59089925      -1.55203893      -0.01442922       0.00670144       0.00467184      -6.91096067
Y        7.74066002      12.73585290      13.03750410  T       1.04796892      -1.88229151      -1.31069496       0.00921359      -0.02571432      -0.00505875      -7.46849775
N       12.23169084       1.07174847      19.15742747  T      -1.37948258       0.50039753       1.03817490      -0.06191389      -0.01203457      -0.00356906      -8.57950783
H       12.46555411       2.03020525      19.40574683  T      -1.13880448      -0.08128810       0.27432665      -0.00011237      -0.03597292       0.00512740      -3.84483624
