48
Lattice="8.838089942932129 0.0 -5.102673530578613 3.099999979481495e-15 19.10738754272461 1.2000000467046398e-15 0.0 0.0 40.821388244628906" Properties=species:S:1:pos:R:3:move_mask:L:1:momenta:R:3:forces:R:3:energies:R:1 adsorbate_info="_JSON {\"site\": {\"coordinates\": [4.7419292949999985, 7.872137064999999, 21.606365204999996], \"connectivity\": 2, \"topology\": [14, 36], \"n_vector\": [0.34666482514397795, 0.17175751119900598, 0.9221295225480087], \"h_vector\": [0.9747723346405722, -0.1485245596102228, -0.16661137659823103], \"site_formula\": {\"Sr\": 1, \"Ag\": 1}}, \"smiles\": \"S1S\", \"mdf\": 0.6438375113756944, \"adsorbate_formula\": \"HN2\"}" bond_change_count=0 energy=-118.12529754638672 stress="8.001070091268048e-05 -8.197302122425754e-06 -2.6895648261415772e-05 -8.197302122425754e-06 0.00010553804168011993 1.6620910173514858e-05 -2.6895648261415772e-05 1.6620910173514858e-05 4.21359327447135e-05" free_energy=-118.12529754638672 pbc="T T F"
Sr       4.98315205       4.71573251      21.42968223  T      -0.53908947      -1.83554871       0.80666272      -0.01433611       0.00548607      -0.05341014      -2.99810457
Sr       0.56969637       4.70035405      20.43027614  T      -0.27074131       0.43179056      -0.39231605      -0.00466868       0.00558833      -0.03025009      -2.38663626
Sr       2.85158187       4.61508940      16.63912995  T      -1.95656452       0.86629605       1.48619107      -0.00856713      -0.00905773       0.00909280      -2.60576844
Sr       6.66232957       1.88072957      18.05099842  T       0.60561357      -0.66327045      -1.04694697      -0.00368448      -0.01636878      -0.00518435      -2.54055858
Sr       2.10112984       1.82801183      22.94161203  T      -0.75499506       0.51222765       0.60993021       0.01351933      -0.01310578       0.01321051      -1.81632829
Sr       8.70874596       1.79635477      11.73008633  F       0.00000000       0.00000000       0.00000000      -0.01689143      -0.04395849      -0.01334326      -1.94920588
Sr       5.89206028       3.18456459      14.28748608  F       0.00000000       0.00000000       0.00000000      -0.33421642       0.08810268      -0.26756752      -2.46374679
Sr       5.89206028      18.36384964      14.28748608  F       0.00000000       0.00000000       0.00000000       0.07721359      -0.15606615      -0.12887384      -2.25324321
Sr       5.89206028       7.11266756      14.28748608  F       0.00000000       0.00000000       0.00000000      -0.05539374       0.09653357      -0.35368055      -2.58404446
Sr       8.03166008      10.94190311      15.67213917  F       0.00000000       0.00000000       0.00000000      -0.25545934      -0.07430447      -0.33324194      -2.67813730
Sr       3.62311602      10.94190311      15.44810772  F       0.00000000       0.00000000       0.00000000      -0.20503768      -0.00097990      -0.00376937      -2.28448129
Sr       6.02140427      10.94190311      11.74221230  F       0.00000000       0.00000000       0.00000000       0.23966466       0.12606743       0.28746903      -1.20411086
Sr       0.62812243       8.29337133      17.57689616  T       1.41458409       1.71520504      -1.22094744      -0.01179502       0.00040838       0.01308408      -2.28895307
Sr       5.09065715       8.12196783      18.06117309  T      -0.10337501       0.09141602       0.41516573       0.00941327      -0.00176611       0.00672907      -2.58765697
Sr       2.95660846       8.35023121      22.14617884  T      -2.22847892       1.27180477      -4.26860681       0.00132579      -0.00011808       0.01747620      -3.79737830
Sr      -0.29366258       9.71046916      24.62853135  T       0.55993524       0.51398636       0.38994562      -0.03786717      -0.03866060       0.00691722      -2.17104840
Sr      -0.27960494       5.59042629      24.33256942  T       0.97917617      -1.32868807       0.39482645       0.03731623      -0.00046274      -0.02710165      -1.93315578
Sr      -0.05812538      13.74064006      24.36584693  T       0.89446861      -0.53540385      -0.24509106      -0.01547829       0.02315515      -0.00787365      -2.12707472
Sr       2.13959980      17.31103325      15.67213917  F       0.00000000       0.00000000       0.00000000      -0.05697596      -0.05639268       0.18987733      -2.20463085
Sr       6.42911819      17.32872232      20.40705866  T      -0.34609886      -0.80910392       2.76358156      -0.00989847      -0.01382484       0.00645766      -2.15799928
Sr       0.14463033      17.34070031      21.99253167  T      -0.81585497       1.41947030      -0.05264273      -0.02970078      -0.00331965       0.00081073      -2.48197460
Sr       3.75246048      14.53461266      12.90283394  F       0.00000000       0.00000000       0.00000000       0.04760873      -0.15093622       0.28577098      -1.09712791
Sr       8.16100407      14.53461266      13.12686539  F       0.00000000       0.00000000       0.00000000       0.02844085       0.11047664      -0.19443080      -2.36620855
Sr       5.65966858      14.62028048      16.54791294  T      -0.14315512      -0.48463087       0.07487051       0.00237775      -0.00053875       0.02784977      -2.63759017
Sr       2.89394988      15.86057320      19.48266096  T       0.02676189       0.82918537      -1.06136494       0.01847165      -0.01593395      -0.02288630      -2.67902040
Sr       3.04188746      11.93421038      19.51097834  T       2.88385292       0.56791179      -1.58375853      -0.01883658      -0.01323010       0.00543075      -2.73712826
Sr       2.85896451       0.81062451      19.08453022  T      -0.49857708       1.05559111       1.41738934      -0.03516609       0.00802635      -0.07968305      -2.81436706
Ag       8.06297779       5.15946722      12.40035057  F       0.00000000       0.00000000       0.00000000       0.17314760      -0.10632159       0.08153379      -1.84335828
Ag       6.32213313       5.08473399      16.92733750  T      -0.37887343       0.73626597      -0.35335765      -0.00462225      -0.01181032       0.01709316      -2.18291116
Ag       3.17229390       5.15946722      13.35098457  F       0.00000000       0.00000000       0.00000000       0.24124423       0.26115346       0.43942678      -1.39917302
Ag       3.62932318       1.32836181      15.95262700  T       0.33028751      -1.02154580      -0.99120297      -0.02009783       0.00349197       0.01874878      -2.06874347
Ag       5.14033726       1.32950165      21.26678926  T      -3.04976223       0.04681108      -0.85962719       0.00994555      -0.02869271       0.03197858      -1.86562681
Ag       8.61182594       1.20966172      15.22398853  F       0.00000000       0.00000000       0.00000000      -0.09943111       0.14890628       0.00685216      -2.26355910
Ag       1.69586836      11.60174958      22.62190893  T      -1.51795112       0.14245814       0.04118051       0.02078106      -0.01640556       0.00549690      -1.86164641
Ag       0.51867735      11.57032559      17.31693362  T      -1.51364310       2.35211456      -0.10808137      -0.00266818      -0.00154747      -0.00983476      -2.02613568
Ag       6.04544031      11.57408950      18.27947342  T       0.63039521       1.14903917      -0.10433532       0.00961498      -0.00027770      -0.00577217      -2.18442178
Ag       6.58025521       7.50617030      20.82354012  T       0.89072205       0.22942880      -2.87387084      -0.00277115       0.01828234      -0.02772709      -2.06344533
Ag       8.26892231       7.71440355      16.66850340  T      -0.14438773      -0.47350452      -0.22060896       0.00905047      -0.00833747       0.00080373      -2.15808058
Ag       2.71976614       7.57879066      15.22398853  F       0.00000000       0.00000000       0.00000000       0.29020375      -0.02457200       0.00114966      -1.89987552
Ag       5.14594199      17.84592123      17.40014567  T       1.17302085       1.02024913      -0.48771944      -0.00371224       0.00591377       0.00633498      -2.21644926
Ag       3.50368784      18.19863178      21.77656652  T      -0.33769664      -0.41983210       0.16388644       0.00715407      -0.00956123       0.03125611      -1.92441165
Ag       0.23811357      17.83071992      18.45208093  T       0.85717510       0.00248168       1.46738789       0.00157687       0.00581139       0.00312574      -2.15961576
Ag       0.72147114      14.00522515      21.22940340  T       0.63706236      -1.17216794      -1.00394098      -0.00864132      -0.01328280       0.01791154      -2.19223738
Ag       2.32753049      13.94240839      16.40814150  T       1.26286184       1.14709851       0.49696614      -0.00680814      -0.00168007      -0.00679663      -2.11230159
Ag       5.64776847      14.06618366      19.78349815  T       2.06918700       1.90653990      -0.69169826       0.00649508       0.01157697      -0.02808467      -1.94730461
N        5.03642222       6.92129290      22.27583390  T      -1.59832040       0.44227411       0.31176950      -0.00084711      -0.07148534       0.01580343      -6.82914495
N        4.91625116       7.71534590      23.33021564  T       3.06243141      -2.09524855       3.77259507       0.00098288      -0.00276202       0.02645406      -7.79605627
H        5.71482349       7.66499240      23.96359288  T       1.74223580       0.99704198      -0.32108621       0.01802438      -0.01321933       0.02536631      -3.28510714
