48
Lattice="8.838089942932129 0.0 -5.102673530578613 3.099999979481495e-15 19.10738754272461 1.2000000467046398e-15 0.0 0.0 40.821388244628906" Properties=species:S:1:pos:R:3:move_mask:L:1:momenta:R:3:forces:R:3:energies:R:1 adsorbate_info="_JSON {\"site\": {\"coordinates\": [5.178860346666665, 0.5987850024251352, 17.227718349999996], \"connectivity\": 3, \"topology\": [3, 30, 39], \"n_vector\": [-0.042598217938918055, 0.7384254932751406, 0.6729882485673829], \"h_vector\": [0.8400753418558164, 0.16553872418474128, 0.5165949581646353], \"site_formula\": {\"Sr\": 1, \"Ag\": 2}}, \"smiles\": \"S1S\", \"mdf\": 1.6657511687851074, \"adsorbate_formula\": \"HN2\"}" bond_change_count=0 energy=-119.43115997314453 stress="9.754743950907141e-05 -1.6396045339206466e-06 -2.910115654231049e-05 -1.6396045339206466e-06 0.00011593144881771877 7.661605536668503e-07 -2.910115654231049e-05 7.661605536668503e-07 4.2451254557818174e-05" free_energy=-119.43115997314453 pbc="T T F"
Sr       4.81706569       4.29270403      20.93909430  T      -1.89444277      -1.09276277      -0.04837699      -0.03787489      -0.01889348      -0.03323609      -3.12841940
Sr       0.60567859       4.72799181      20.43446571  T       0.25173751      -0.46395426       0.74708483      -0.02332820       0.01447323      -0.00316400      -2.44915843
Sr       2.96579576       4.44627725      16.87374777  T      -0.29377814       0.00754472      -0.42581444       0.00897618       0.00174116      -0.00543973      -3.33921552
Sr       6.20817341       1.44257726      18.13631398  T      11.12368136       2.53069715      -4.65671138       0.04348862      -0.05111926       0.00478169      -3.59832263
Sr       1.71286692       1.84454700      23.16699822  T      -0.02198506      -0.42528693       1.27775265      -0.00436759       0.00238103      -0.00347821      -1.86490369
Sr       8.70874596       1.79635477      11.73008633  F       0.00000000       0.00000000       0.00000000       0.05038717      -0.08985697       0.01435351      -2.04606390
Sr       5.89206028       3.18456459      14.28748608  F       0.00000000       0.00000000       0.00000000      -0.29417610       0.09951818      -0.18875758      -2.45300794
Sr       5.89206028      18.36384964      14.28748608  F       0.00000000       0.00000000       0.00000000      -0.01874387      -0.16560042      -0.30972463      -2.21837425
Sr       5.89206028       7.11266756      14.28748608  F       0.00000000       0.00000000       0.00000000      -0.07279304       0.12897503      -0.40163040      -2.56692100
Sr       8.03166008      10.94190311      15.67213917  F       0.00000000       0.00000000       0.00000000      -0.13714425      -0.15352923      -0.29859465      -2.68337655
Sr       3.62311602      10.94190311      15.44810772  F       0.00000000       0.00000000       0.00000000      -0.28014454      -0.02894147      -0.05831739      -2.26512122
Sr       6.02140427      10.94190311      11.74221230  F       0.00000000       0.00000000       0.00000000       0.25319156       0.12508312       0.29206240      -1.19686604
Sr       0.65066973       8.29969240      17.64068830  T       0.53629047       2.04976004      -3.66159692      -0.00363340       0.00695895      -0.01445406      -2.31590199
Sr       4.97669875       8.21865763      18.04758086  T       0.39033684      -0.41886399      -0.71424559      -0.00250685      -0.00091498      -0.00124930      -2.58939123
Sr       2.77037109       8.28998617      21.75177012  T       1.54463591       1.90240667       0.42100647      -0.02010777       0.02829206       0.00953843      -2.04881740
Sr      -0.31169867       9.54031333      24.59446016  T      -0.43935468      -0.70492615       0.29334171       0.00434217       0.01579601       0.01407498      -2.17120242
Sr      -0.25532847       5.54975953      24.42280280  T       0.60329317      -0.01456253       0.27207764      -0.00223364       0.01476090       0.00602199      -1.90269804
Sr      -0.04135119      13.57203422      24.26892729  T       2.70960484       1.25380175       0.92739013       0.00855669       0.02411808       0.01924622      -2.12727523
Sr       2.13959980      17.31103325      15.67213917  F       0.00000000       0.00000000       0.00000000      -0.04358139      -0.07485647       0.11684480      -2.22418332
Sr       6.35889695      17.60028099      20.72592011  T      -2.09661667       2.73248937       1.02266477      -0.03511971       0.02761409      -0.01783365      -3.20882010
Sr       0.01464145      17.17559485      21.92219763  T      -0.21123334       1.35684819       0.05462965      -0.00755867      -0.00130292       0.01444945      -2.60124683
Sr       3.75246048      14.53461266      12.90283394  F       0.00000000       0.00000000       0.00000000       0.02670699      -0.13246475       0.25015473      -1.10481501
Sr       8.16100407      14.53461266      13.12686539  F       0.00000000       0.00000000       0.00000000       0.21642661       0.19335631      -0.21743062      -2.38628674
Sr       5.67348044      14.41120740      16.45995207  T      -0.49444432       0.28125302      -1.01885296      -0.00860824       0.01895539      -0.00924281      -2.61081028
Sr       3.22117833      16.42500063      19.40650582  T       0.41896126      -1.13740312      -1.37272397      -0.02237587      -0.06770028       0.02603428      -3.27934504
Sr       3.03287105      12.13786958      19.52332479  T       0.53216124       1.07302738       1.20324956      -0.00558925      -0.00481865       0.00480028      -2.84226608
Sr       3.02274144       1.06782038      19.30443342  T      -2.97592765      -1.55443859       0.35350489      -0.02975400       0.06944105       0.02347518      -3.92018008
Ag       8.06297779       5.15946722      12.40035057  F       0.00000000       0.00000000       0.00000000       0.11646769      -0.12421964       0.11513238      -1.81670284
Ag       6.48463535       5.21308879      16.89408386  T       0.87993376      -0.36243579       0.20833199      -0.00857226      -0.01794168      -0.01378885      -2.18374562
Ag       3.17229390       5.15946722      13.35098457  F       0.00000000       0.00000000       0.00000000       0.26851103       0.26344496       0.55675870      -1.38422775
Ag       3.25393321       1.32157642      15.61261257  T      -0.13136899      -1.07654979       0.48235031       0.00282105      -0.02178946      -0.01341005      -1.98661745
Ag       4.79986824       1.24915637      22.14636831  T      -0.99005523      -0.67240152       3.68237055      -0.01382560       0.00756022       0.01467492      -1.76391304
Ag       8.61182594       1.20966172      15.22398853  F       0.00000000       0.00000000       0.00000000      -0.17099003       0.08217815       0.01107359      -2.23359632
Ag       1.77775427      11.35715044      22.59486833  T      -1.57644715       1.37626254      -1.05354530      -0.01564493       0.01104580      -0.00051754      -1.84234834
Ag       0.53807604      11.58282029      17.29434916  T      -0.71778621      -0.18538594      -0.53230501      -0.00530168       0.00158351      -0.00112344      -2.02160501
Ag       6.06327676      11.57559259      18.33592965  T       0.65072811      -0.18999690      -0.27576330       0.00628005      -0.01475526       0.01147381      -2.18894267
Ag       6.16971639       7.35636830      20.87411321  T       0.57543016      -0.68133704      -1.17419927      -0.01542478      -0.00991050       0.01178254      -1.66706276
Ag       8.31422714       7.63417180      16.67185871  T       0.29329291       0.90588777       0.70938740      -0.00769923       0.00163736       0.00642237      -2.22757602
Ag       2.71976614       7.57879066      15.22398853  F       0.00000000       0.00000000       0.00000000       0.28942773      -0.15055875       0.06600093      -1.88709271
Ag       5.41737726      17.46612657      17.21203663  T      -1.15204172      -4.67801983      -2.21069323       0.03104457      -0.02982031      -0.00383111      -2.39448905
Ag       3.14395838      18.19539033      22.18733565  T       0.25199359       0.50401984       0.97500281      -0.00030240       0.00147360      -0.00303252      -1.89188981
Ag       0.24929659      17.91477237      18.46229650  T      -0.67224096      -1.74046928       0.07870173       0.00802537      -0.00822463       0.01102816      -2.14208531
Ag       0.77862716      14.00729999      21.18636438  T      -0.06210050      -0.29069545       1.66547799      -0.01748210      -0.00819464       0.00040233      -2.11326027
Ag       2.30441160      13.93994931      16.35426018  T      -2.96665851       1.82494791       1.01119952      -0.00181354      -0.00297786      -0.01562845      -2.09666133
Ag       5.70732076      14.18224805      19.71505753  T       0.78108737      -3.32639347       0.26475136      -0.01529471       0.00680521      -0.00115161      -1.89391804
N        4.87350444      -0.68235660      19.12501935  T      -1.82986260      -5.87563059       4.98829494       0.02472009       0.01429208       0.02724597      -5.97281361
N        4.29552206       3.12720689      18.81624178  T      -4.59052572       7.97548793       3.28728318       0.00600133       0.00162181      -0.00692263      -6.65864754
H        4.97239259       3.80467328      18.42770658  T       0.78509004       0.53758592      -0.37507886      -0.04338233       0.01528423      -0.00587450      -3.92096567
