48
Lattice="8.838089942932129 0.0 -5.102673530578613 3.099999979481495e-15 19.10738754272461 1.2000000467046398e-15 0.0 0.0 40.821388244628906" Properties=species:S:1:pos:R:3:move_mask:L:1:momenta:R:3:forces:R:3:energies:R:1 adsorbate_info="_JSON {\"site\": {\"coordinates\": [0.677086, 4.57277441, 20.55078125], \"connectivity\": 1, \"topology\": [1], \"n_vector\": [0.5947543576277293, -0.20798558318448934, 0.7765367031056772], \"h_vector\": [1.0, 0.0, 0.0], \"site_formula\": {\"Sr\": 1}}, \"smiles\": \"Cl\", \"mdf\": 1.7279160645690992, \"adsorbate_formula\": \"HN2\"}" bond_change_count=0 energy=-120.34844207763672 stress="0.00010228771134279668 -1.1595273463171907e-05 -3.989094329881482e-05 -1.1595273463171907e-05 0.00011292133422102779 1.2765192877850495e-05 -3.989094329881482e-05 1.2765192877850495e-05 5.1850685849785805e-05" free_energy=-120.34844207763672 pbc="T T F"
Sr       4.73549170       4.40193612      20.75898133  T      -0.30954158      -1.47037893       0.31478742       0.00353840       0.03081474      -0.03816497      -3.15161943
Sr       0.86900804       4.45801150      20.47436717  T      -3.80983695       1.59678992      -8.72209635      -0.02297619       0.04016198       0.01880962      -3.68533707
Sr       2.88122156       4.53263583      16.74153707  T      -0.90066171      -0.23639864       0.70134397      -0.00802718       0.02545420      -0.00567935      -2.88843203
Sr       6.63582220       1.72172960      17.95004268  T      -2.26861435       1.04537364       2.13820488       0.02365651       0.01108027      -0.00796400      -2.54504395
Sr       2.54322459       2.16376240      23.29665529  T      -0.32830068      -5.33378638       4.45213080       0.02556071      -0.06655049       0.03220695      -3.65189743
Sr       8.70874596       1.79635477      11.73008633  F       0.00000000       0.00000000       0.00000000      -0.02570980      -0.07262488      -0.05648527      -1.97149277
Sr       5.89206028       3.18456459      14.28748608  F       0.00000000       0.00000000       0.00000000      -0.25309372       0.17505912      -0.21582574      -2.44539857
Sr       5.89206028      18.36384964      14.28748608  F       0.00000000       0.00000000       0.00000000       0.07902864      -0.16098882      -0.14378844      -2.25582027
Sr       5.89206028       7.11266756      14.28748608  F       0.00000000       0.00000000       0.00000000      -0.08402495       0.06309406      -0.37126774      -2.55631161
Sr       8.03166008      10.94190311      15.67213917  F       0.00000000       0.00000000       0.00000000      -0.24594897      -0.12961310      -0.36499715      -2.67681313
Sr       3.62311602      10.94190311      15.44810772  F       0.00000000       0.00000000       0.00000000      -0.23002572       0.02602089      -0.03558792      -2.29484844
Sr       6.02140427      10.94190311      11.74221230  F       0.00000000       0.00000000       0.00000000       0.24579284       0.11817798       0.28693110      -1.20221210
Sr       0.64047244       8.28413831      17.62694092  T      -1.97396653       0.62781739      -1.04988502      -0.01774021       0.00946350       0.01223196      -2.31800508
Sr       4.93456323       8.12962282      18.00648435  T      -0.26829298      -0.45653272      -1.02639497       0.02909060      -0.01308698      -0.00000757      -2.59593987
Sr       2.74870559       8.33562088      21.68139349  T      -0.63661470      -0.15118243      -1.61721871      -0.00960676      -0.02273823       0.00910723      -1.97738576
Sr      -0.34525333       9.49449240      24.53106763  T       0.00404564       0.50493154       0.03409565      -0.01869497       0.01626065       0.03120457      -2.18843317
Sr       0.07101000       5.41576822      24.22983537  T       0.69437240      -0.79429393      -0.28420197      -0.00806928      -0.00122667      -0.00609498      -2.84661865
Sr      -0.05483788      13.59413152      24.29509197  T       0.05883217       1.14593979       0.63129168      -0.00885765      -0.00779940       0.00106154      -2.15209103
Sr       2.13959980      17.31103325      15.67213917  F       0.00000000       0.00000000       0.00000000      -0.07584995      -0.05122231       0.16335197      -2.20990276
Sr       6.49270078      17.20514231      20.36971155  T       1.27798867      -0.51775067      -0.53712093      -0.00912082       0.01037730       0.00386740      -2.16061664
Sr       0.19180972      17.34109466      21.96774197  T      -1.34410035       0.34560950      -0.49586811      -0.01694555      -0.00003620       0.00547462      -2.45055628
Sr       3.75246048      14.53461266      12.90283394  F       0.00000000       0.00000000       0.00000000       0.04217228      -0.15100004       0.27998263      -1.10644984
Sr       8.16100407      14.53461266      13.12686539  F       0.00000000       0.00000000       0.00000000       0.04656860       0.13796932      -0.22624701      -2.36181092
Sr       5.67585888      14.60852627      16.52941117  T      -1.47880285       0.82550101      -0.32004292       0.00765125       0.00135111       0.01458553      -2.63963008
Sr       2.91306279      15.88355089      19.43927429  T       0.82381774      -0.69647637       0.64427513       0.00399281       0.00270948      -0.01286240      -2.68982697
Sr       3.01512112      11.93125765      19.54585122  T       0.91100006      -1.80632067       2.15223533      -0.00020722      -0.00717779      -0.00189674      -2.75696182
Sr       2.86822296       0.97374645      19.07646634  T       0.17383110      -2.36913245       1.31473397      -0.06384960       0.03138790      -0.05314531      -3.00524616
Ag       8.06297779       5.15946722      12.40035057  F       0.00000000       0.00000000       0.00000000       0.15306264      -0.12894225       0.17053562      -1.83126295
Ag       6.35940235       5.08702739      16.99661835  T      -0.96450171      -0.54696600       2.42635743      -0.01758349      -0.02520162       0.01724923      -2.18412852
Ag       3.17229390       5.15946722      13.35098457  F       0.00000000       0.00000000       0.00000000       0.26840526       0.27042639       0.47942778      -1.39389086
Ag       3.57821141       1.31111222      15.87920394  T      -1.49711545       0.43608353       0.45180481       0.01202142      -0.01594452       0.04351944      -2.07055640
Ag       5.33354426       1.16655946      21.10397073  T       1.00268112       1.50735703       0.94803339       0.00315858      -0.04136649       0.02248938      -1.87280428
Ag       8.61182594       1.20966172      15.22398853  F       0.00000000       0.00000000       0.00000000      -0.19316100      -0.01132260      -0.16887963      -2.21546888
Ag       1.71725573      11.34059272      22.61996211  T      -1.18327666      -1.67115920      -0.80088840       0.05605544       0.01245506       0.02711989      -1.83829546
Ag       0.52241348      11.57570543      17.28536394  T      -0.12903295       0.39774353      -0.28914053       0.00467068      -0.00400207       0.00263183      -2.01993632
Ag       6.00066007      11.51711958      18.24201305  T      -0.24095899      -0.43398869       0.69105732       0.03166186      -0.00661278       0.01919033      -2.19226670
Ag       6.23951605       7.37844949      20.81375495  T      -1.17015306      -0.80194016       0.94375036      -0.00637894      -0.02260021      -0.01881674      -1.61538410
Ag       8.25607990       7.61481826      16.58023082  T       0.30137761       0.99697585      -1.54578249       0.01478712      -0.00175103       0.01772840      -2.17605996
Ag       2.71976614       7.57879066      15.22398853  F       0.00000000       0.00000000       0.00000000       0.27643052      -0.08777718       0.02016614      -1.90403950
Ag       5.13994013      17.80074820      17.38341323  T      -0.57955854      -1.73993905       2.49989575       0.00281159       0.00782664       0.02567730      -2.21095085
Ag       3.53048616      18.21688723      21.72379122  T       0.02684000      -1.10012500      -1.28833433       0.03337856       0.01622986       0.00685956      -1.89951265
Ag       0.25135689      17.88118529      18.45630815  T       0.71104155      -1.48018807      -0.68306372       0.01194519      -0.01001704       0.02895003      -2.16472030
Ag       0.71685288      14.03574328      21.20971621  T      -1.20797260       1.38111729       0.58294626      -0.00698810      -0.01904859      -0.00079395      -2.15307283
Ag       2.32504415      13.94992319      16.36973043  T      -1.94811662      -1.03743776      -1.16351261      -0.01097280      -0.00215185       0.00383930      -2.11066103
Ag       5.64603556      14.02375853      19.73889702  T      -0.13026185      -0.77505328      -1.50536055       0.01853621      -0.01292786      -0.01430006      -1.94649100
N        1.74049185       4.39673769      22.91281451  T       1.70620332       0.46197308       8.48895927      -0.01968036       0.01550227      -0.01016776      -7.22977686
N        2.79872510       4.21455485      22.14013235  T       1.71394839       4.99556208      -1.52827147       0.02002351       0.05787081      -0.00238422      -7.30590630
H        2.93266179       3.55595863      19.10231232  T       0.72481118       0.60325665      -2.08773441      -0.06048803      -0.00596275       0.01115776      -3.22857141
