48
Lattice="8.838089942932129 0.0 -5.102673530578613 3.099999979481495e-15 19.10738754272461 1.2000000467046398e-15 0.0 0.0 40.821388244628906" Properties=species:S:1:pos:R:3:move_mask:L:1:momenta:R:3:forces:R:3:energies:R:1 adsorbate_info="_JSON {\"site\": {\"coordinates\": [2.9460301399999995, 13.95877123, 19.390159609999998], \"connectivity\": 2, \"topology\": [24, 25], \"n_vector\": [0.25779280079311884, 0.0787733101508769, 0.9629837160965461], \"h_vector\": [0.0, 1.0, 0.0], \"site_formula\": {\"Sr\": 2}}, \"smiles\": \"S1S\", \"mdf\": 0.6429197691747559, \"adsorbate_formula\": \"HN2\"}" bond_change_count=1 energy=-117.339599609375 stress="8.389221329707652e-05 -2.4599676180514507e-06 -3.395761450519785e-05 -2.4599676180514507e-06 9.358135866932571e-05 8.31433408166049e-06 -3.395761450519785e-05 8.31433408166049e-06 4.359688682598062e-05" free_energy=-117.339599609375 pbc="T T F"
Sr       4.80485238       4.57601579      20.46663129  T      -0.73105082      -0.20277331       0.45789649      -0.00253170      -0.01478034       0.01821687      -2.13964152
Sr       0.54124139       4.73449048      20.41849593  T       1.66453029       0.90033742       2.42450833       0.00264816       0.00236047       0.00782543      -2.39592910
Sr       2.73692192       4.59551926      16.57012521  T      -1.23710467       1.02482286      -0.27838194       0.01210875       0.00384731       0.00906740      -2.65593195
Sr       6.71581773       1.80101361      18.01384171  T       2.77569728      -0.68146104      -0.42747981       0.00205225      -0.00148143       0.00577595      -2.55594015
Sr       2.23879323       1.94499986      22.83741549  T      -0.64823722      -2.22129044      -1.34975846      -0.00731535      -0.01026458       0.00593798      -1.82641315
Sr       8.70874596       1.79635477      11.73008633  F       0.00000000       0.00000000       0.00000000      -0.08559886      -0.10265446      -0.00874572      -1.94589376
Sr       5.89206028       3.18456459      14.28748608  F       0.00000000       0.00000000       0.00000000      -0.37204286       0.10026230      -0.20716587      -2.45588326
Sr       5.89206028      18.36384964      14.28748608  F       0.00000000       0.00000000       0.00000000       0.06052640      -0.18601346      -0.14888309      -2.25273895
Sr       5.89206028       7.11266756      14.28748608  F       0.00000000       0.00000000       0.00000000      -0.06498475       0.03807648      -0.32734668      -2.55501986
Sr       8.03166008      10.94190311      15.67213917  F       0.00000000       0.00000000       0.00000000      -0.05220148      -0.03271014      -0.28321135      -2.67632413
Sr       3.62311602      10.94190311      15.44810772  F       0.00000000       0.00000000       0.00000000      -0.19773445       0.01541427      -0.09092637      -2.26130652
Sr       6.02140427      10.94190311      11.74221230  F       0.00000000       0.00000000       0.00000000       0.25800508       0.13549241       0.29789370      -1.18976331
Sr       0.61607087       8.27998826      17.63265704  T       0.67092136      -0.71327259      -0.51562030       0.00387140       0.00233043      -0.00381556      -2.32941413
Sr       5.03126826       8.10137218      17.97336508  T       0.15215775       0.55435573       0.97090112      -0.01056611      -0.01589352       0.00643646      -2.59121490
Sr       2.74935990       8.16788071      21.85879264  T      -1.09701467      -1.56279709       0.87208472       0.00792298       0.02006219       0.01467267      -1.97754049
Sr      -0.29550689       9.67797896      24.55208630  T       0.27529711      -0.27424956       1.24672446       0.02167553       0.00056944      -0.01172541      -2.16504312
Sr      -0.25997727       5.67686661      24.29259013  T      -0.34547668       0.95919703      -0.05691644      -0.01562552      -0.01501008       0.01987019      -1.92849493
Sr      -0.10095440      13.70397053      24.44063363  T       1.35413760       2.08104788      -0.37216351       0.02189297      -0.02188015      -0.01319619      -2.12658620
Sr       2.13959980      17.31103325      15.67213917  F       0.00000000       0.00000000       0.00000000      -0.05294109      -0.13789010       0.26205426      -2.21969843
Sr       6.41441634      17.32219406      20.40523872  T      -1.34840645       0.27338372       0.81913150      -0.00931024      -0.01445480       0.02386008      -2.17286038
Sr       0.07451394      17.43855703      22.07877959  T      -2.02940375      -1.18759942      -1.68460055      -0.00507202       0.01837189      -0.01196726      -2.47658515
Sr       3.75246048      14.53461266      12.90283394  F       0.00000000       0.00000000       0.00000000       0.06258479      -0.15600020       0.33813974      -1.13225341
Sr       8.16100407      14.53461266      13.12686539  F       0.00000000       0.00000000       0.00000000      -0.11732228       0.12335739      -0.35212564      -2.34677219
Sr       5.58088819      14.64047887      16.69292836  T      -1.34295016       0.18601324       0.02696039      -0.00505530       0.00234795      -0.00097593      -2.73722100
Sr       2.81670280      15.59514252      19.86226414  T      -0.12855132       2.54116548      -3.79760538      -0.00587153      -0.01818348       0.03884056      -3.29368472
Sr       3.18954386      11.68966996      19.64072365  T      -0.83967625       0.15702619      -2.33447244      -0.00848073       0.01633680       0.00600654      -3.84074736
Sr       2.83890223       0.66399657      18.99451680  T      -0.63476647      -0.20303643      -0.78985059       0.02172297       0.00445895       0.03401809      -2.84367299
Ag       8.06297779       5.15946722      12.40035057  F       0.00000000       0.00000000       0.00000000       0.11088129      -0.11663126       0.04980908      -1.85543776
Ag       6.13581904       4.97819594      17.09662921  T       0.57967780      -0.93186897      -0.68248591       0.00482452       0.00767726       0.00470957      -2.21745920
Ag       3.17229390       5.15946722      13.35098457  F       0.00000000       0.00000000       0.00000000       0.24455382       0.26957810       0.37473688      -1.39743519
Ag       3.53672115       1.33054226      15.89488715  T      -1.43574677       2.16437812       0.18072973       0.00994680      -0.00538887      -0.01589286      -2.05872917
Ag       5.14386918       1.35736784      21.13096177  T      -1.55344856       0.06877116      -0.78848639      -0.00667690      -0.02258697       0.00473618      -1.89364326
Ag       8.61182594       1.20966172      15.22398853  F       0.00000000       0.00000000       0.00000000      -0.05801214       0.15420347      -0.05091669      -2.25747657
Ag       1.73104463      11.61682188      22.65486606  T      -1.46954471      -2.04840272       0.76143289      -0.06486085      -0.02507371       0.04605551      -2.06002116
Ag       0.55939233      11.59827126      17.30015251  T      -2.90534538      -1.74286947       1.90484616      -0.00976949      -0.00339363       0.00229562      -2.00720286
Ag       6.11021079      11.60904448      18.19426260  T       2.27785657      -0.09310292       0.97694860       0.00081044      -0.01130383       0.00177099      -2.14451456
Ag       6.18124296       7.51812054      20.87264975  T       0.37507398       3.14868314       0.61633877       0.00532330      -0.00369235       0.01710682      -1.67202663
Ag       8.34024237       7.73881029      16.57525396  T       0.39666618      -0.97076004      -1.73577946      -0.01578674      -0.00277926       0.00767158      -2.16888547
Ag       2.71976614       7.57879066      15.22398853  F       0.00000000       0.00000000       0.00000000       0.25659189       0.01635126      -0.00580614      -1.90662718
Ag       5.17568483      17.84637648      17.39172308  T      -0.67567937      -1.03965984       1.74045248       0.00390480       0.00824500       0.00413325      -2.17927194
Ag       3.51800306      18.24267369      21.81096091  T       1.09415242       0.60248159       1.11004376      -0.00686150      -0.00972295      -0.00023665      -1.90391445
Ag       0.21339229      17.78454114      18.45746193  T       0.42171751      -0.77546455       1.51698070       0.00555947       0.00730166       0.00786828      -2.12326479
Ag       0.08124788      14.17410767      21.31102830  T      -4.17976223      -0.83156954       0.45225816       0.02424923       0.00719645      -0.00305612      -2.08439040
Ag       2.26250703      13.93576021      16.26100962  T      -1.47706544      -1.69792281       0.40566427      -0.01376128      -0.00428994       0.00025648      -2.04774237
Ag       5.69630478      14.09413349      19.94121370  T       2.68207030      -1.07063632      -0.10228535       0.02569613       0.02494681      -0.01148550      -2.14190531
N        3.78344091      13.63921890      21.00928409  T       1.86056397      -3.95763862       1.24685801       0.00021271       0.01530704      -0.03021687      -6.64139557
N        3.60299988      12.68706887      21.91774038  T       2.44279626      -0.99218753       3.10829118       0.01977432      -0.04126388       0.03426707      -8.22197342
H        4.22866122      12.83492648      22.71989559  T      -0.35531829       0.54362807       0.48554340       0.00104311      -0.02075207      -0.06633726      -3.26369309
