75
Lattice="15.477487564086914 0.0 0.5151416063308716 3.713155508041382 10.794244766235352 0.5151416063308716 0.0 0.0 29.30695915222168" Properties=species:S:1:pos:R:3:move_mask:L:1:momenta:R:3:forces:R:3:energies:R:1 adsorbate_info="_JSON {\"site\": {\"coordinates\": [15.42790604, 4.96280718, 14.50471592], \"connectivity\": 1, \"topology\": [44], \"n_vector\": [-0.4586797394524706, 0.6318340510819956, 0.6248188765627427], \"h_vector\": [1.0, 0.0, 0.0], \"site_formula\": {\"Ti\": 1}}, \"smiles\": \"Cl\", \"mdf\": 1.3919530772784168, \"adsorbate_formula\": \"C2H6N2O\"}" bond_change_count=0 energy=-493.2861328125 stress="0.007705803960561752 0.0006270737503655255 0.0003445677866693586 0.0006270737503655255 0.009189518168568611 0.0006071556708775461 0.0003445677866693586 0.0006071556708775461 0.0016025323420763016" free_energy=-493.2861328125 pbc="T T T"
Bi       9.22672936       7.42517859      15.03320883  T       0.58067951       0.13224879      -2.87084767       0.02326669      -0.00459711      -0.00125915      -6.50581264
Bi       0.82545853       0.05622002      12.69866753  F       0.00000000       0.00000000       0.00000000      -0.00196197      -0.03756731      -0.92833233      -5.46440983
Bi       2.98598519       0.56028303      18.19345529  T      -3.44900982      -0.18405486      -2.30953215       0.01659807       0.00987362       0.00632925      -4.83014727
Bi       6.17674721       4.06645165      16.80812929  T       1.04127631      -0.44962642      -3.15632339      -0.02079410      -0.02012286       0.02335364      -5.67541313
Bi       2.24949318       3.36114893      14.97964602  T       1.31493468       1.44322774      -0.27453773      -0.03004372      -0.01824090      -0.00334646      -6.50068665
Bi       5.36463547       6.69018269      13.39567089  F       0.00000000       0.00000000       0.00000000       0.01505437       0.10681696      -1.36493194      -5.85990429
Bi       8.45968246      10.06338406      11.78936005  F       0.00000000       0.00000000       0.00000000       0.00413071      -0.06618237      -0.13417271      -4.91477633
Bi      10.62886593      10.56613980      17.54758615  T      -0.47541984       1.13528925       0.18646077       0.02610685       0.00970724      -0.01574382      -5.25411081
Ti       9.01046263       5.28734662      16.91230517  T       0.32545984      -0.25191746      -0.02260513      -0.01341169       0.01259188      -0.01768515      -6.62415695
Ti       4.12419515       8.64593663      15.23112916  T       1.65360421       0.76184409       0.54919511      -0.03690581      -0.02070302       0.00763610      -7.44164801
Ti       3.56686091       1.26976061      13.20247269  F       0.00000000       0.00000000       0.00000000       0.29499134       0.12094408       0.12841195      -7.05525208
Ti       6.66190815       4.64296198      11.59616184  F       0.00000000       0.00000000       0.00000000       0.40871087      -0.32623130       0.91305017      -6.18865299
Ti       7.65257019       4.86395066      14.10927955  T      -0.55380694      -0.45711063      -0.95595134       0.01716878       0.00633961       0.01078206      -7.21409750
Ti       3.04546547       8.33600903      12.38326454  F       0.00000000       0.00000000       0.00000000      -0.22581109       0.07146382       0.77300751      -6.40396357
Ti       5.25098569       8.83532724      17.59218805  T       1.40418877      -0.78783209      -1.63472206       0.00203950       0.02620193       0.00476012      -6.77275419
Ti       4.61675021       1.48148944      15.76607511  T       0.33420265      -1.07853941      -0.69567513       0.02200115      -0.00487459       0.00053397      -7.39931250
Ti       6.44733563       7.01365581      16.13013590  T       0.52748396      -0.73552436      -1.62576069      -0.01365195       0.03366452      -0.02154446      -7.10060596
Ti       9.52081875      10.41522654      14.60102186  T      -0.06409744       0.77416344      -0.24788898      -0.00714162       0.00592059       0.01114857      -7.47889519
Ti       1.12472832       3.04373622      12.22225189  F       0.00000000       0.00000000       0.00000000      -0.50553554       0.43783206       0.33174971      -6.51680088
Ti       3.25529761       3.74929026      17.79442108  T       2.64769253      -2.47981750       1.00804609       0.02553368       0.01716262       0.03881061      -7.81620693
Ti       2.62323332       5.47664213      12.89186573  F       0.00000000       0.00000000       0.00000000      -0.35952815      -0.04953724      -0.11937451      -6.35819721
Ti       4.63100769       6.25131387      18.16652450  T      -1.88683792       0.82563320       0.07203807      -0.01396933      -0.02396711       0.02819146      -6.48934269
Ti       7.94997275       9.43118925      16.80772015  T      -0.51415396       1.19475445       0.93279460      -0.01656249       0.01399155      -0.02319542      -7.08974838
Ti       7.22319124       2.08546425      14.70831292  T      -0.13019668       1.09864959      -0.86686973       0.00985414       0.00596045      -0.00009939      -7.32434464
Ti       3.72885287       5.81422468      15.78157496  T       1.93931087       0.12556402      -1.10073621       0.01592040       0.02037710       0.03148648      -7.33541679
Ti       6.85543901       9.28887597      14.33166772  T       0.99497291       0.55443077      -0.91243738      -0.00294892      -0.02222210       0.01492003      -7.36871672
Ti       6.23967600       1.78359568      12.10476303  F       0.00000000       0.00000000       0.00000000       0.04825910       0.59114128       0.78857738      -6.79889488
Ti       8.44765845       2.31469217      17.29609633  T      -0.33275486       0.83827409       0.08215985       0.00174394      -0.00182465      -0.02662846      -6.71431971
Ti       5.06536579       3.70266676      13.87208557  F       0.00000000       0.00000000       0.00000000       0.21731219      -0.39473182      -0.28322130      -7.05794764
Ti       8.16041279       7.07586813      12.26577568  F       0.00000000       0.00000000       0.00000000       0.15851805      -0.52815765       0.58394372      -6.32771492
Ti      10.89443076       7.06050276      17.90235099  T       0.12643348      -0.08873206      -0.07581956       0.03263743      -0.02721646      -0.00709607      -6.56167412
Ti       1.92555489       0.35614815      15.44731341  T      -0.23056825      -1.17225437      -1.13392039       0.00802684       0.00204943       0.00523112      -7.57856226
Bi      16.91253040       7.41576556      15.23782307  T      -1.68372697       2.77268531      -2.00306742       0.04681404      -0.01418107       0.00598876      -6.58541250
Bi       8.56420231       0.05622002      12.95623875  F       0.00000000       0.00000000       0.00000000       0.02023222      -0.17830491      -1.01008117      -5.46128654
Bi      10.68606731       0.76692785      18.42522432  T       1.42618134      -0.31670500      -0.46225439      -0.02340488      -0.00692499       0.02786979      -4.84512329
Bi      13.80091108       3.76667290      17.11065892  T     -23.31444719      -3.34191588      -2.69278286       0.02600519      -0.06751820       0.00843996      -5.78341246
Bi      10.08396347       3.30845307      15.12873645  T      -0.51703983       0.11125183      -1.96159031      -0.03309344      -0.01134443      -0.04118342      -6.59644985
Bi      13.10337925       6.69018269      13.65324116  F       0.00000000       0.00000000       0.00000000       0.20631623       0.39774510      -3.25657010      -5.63325691
Bi      16.19842720      10.06338406      12.04693127  F       0.00000000       0.00000000       0.00000000       0.01167237      -0.06605902      -0.12259243      -4.90683651
Bi      18.33788878      10.69287284      17.77495960  T      -2.01341644      -0.67741053       0.70022211      -0.03172138       0.00128223      -0.01681072      -5.34703398
Ti      16.24032162       5.26268109      17.51793814  T      21.90026317      12.84355360       9.74036750      -0.01104614      -0.04688662       0.01203221      -7.57545710
Ti      11.89908253       8.53555349      15.50958447  T       1.38066234      -1.31178288       0.48649341      -0.00462335       0.00533399       0.00658770      -7.59269810
Ti      11.30560493       1.26976061      13.46004295  F       0.00000000       0.00000000       0.00000000       0.32622927      -0.01229972      -0.00010637      -7.09552479
Ti      14.40065193       4.64296198      11.85373306  F       0.00000000       0.00000000       0.00000000       0.24109784      -0.02322083       1.17522717      -6.46372032
Ti      15.36892912       4.89458486      14.46361340  T       5.47886208      -0.99659377      -9.60495713       0.04499763      -0.01303510      -0.01193994      -7.66635799
Ti      10.78420925       8.33600903      12.64083481  F       0.00000000       0.00000000       0.00000000      -0.46575037       0.14005643       0.81718010      -6.42959356
Ti      13.11602284       8.79863062      17.85382189  T      -0.06423081      -1.14831175       0.27451475      -0.00031896       0.01578519       0.02661878      -6.92157841
Ti      12.35027980       1.61308826      16.04161748  T      -0.00403199       0.07335574      -0.55446569       0.04330599      -0.02568508      -0.03587097      -7.53607988
Ti      14.21849282       6.83973801      16.25500335  T       0.39457764      -0.55006439      -1.31277531      -0.02344716      -0.01076739       0.02593572      -7.62280512
Ti      17.23599872      10.46027488      14.87111634  T      -0.28167163       0.44498832       0.07683504      -0.00816773       0.00574538       0.01671515      -7.49588585
Ti       8.86347198       3.04373622      12.47982311  F       0.00000000       0.00000000       0.00000000      -0.55453897       0.36572483      -0.07967687      -6.33523846
Ti      11.12123818       4.06742982      17.96568235  T       0.09518548      -0.35729282      -0.08459549      -0.04367757       0.00613236       0.03659308      -6.76017427
Ti      10.36197758       5.47664213      13.14943600  F       0.00000000       0.00000000       0.00000000       0.16636917       0.02738927       0.12623221      -6.54658985
Ti      13.41547232       6.01546966      18.57256620  T      -0.27957683      -1.31486601      -0.65551827      -0.07080241      -0.00834046      -0.01096117      -7.14609814
Ti      15.61532617       9.48753631      17.02138431  T      -0.53072704       1.10040172      -0.17644150      -0.00150517       0.00904302       0.01084775      -7.10838509
Ti      14.97407656       2.12385282      15.02885757  T      -0.57600076       0.02850229      -0.14545860      -0.00484091      -0.00139821       0.01820752      -7.59382677
Ti      11.74477595       5.61417558      15.96623883  T       1.90459508       1.37495691      -0.05857811      -0.08397543       0.00820285       0.00821781      -7.62218666
Ti      14.56679033       9.18462132      14.53499860  T       0.09764146       0.46598727       0.63725547      -0.00674189       0.01848631       0.00875199      -7.44327831
Ti      13.97841930       1.78359568      12.36233425  F       0.00000000       0.00000000       0.00000000       0.17432147       0.42700073       0.68870288      -6.88833189
Ti      16.16076611       2.39750002      17.84201877  T      -0.82767269     -13.46090376      -2.19400084      -0.01614845       0.06821859       0.04957488      -7.84510899
Ti      12.93647413       3.69820462      14.10209922  T       2.95982155       1.32992162      -0.19511020       0.05010930       0.00302666       0.00596242      -7.49570131
Ti      15.89915657       7.07586813      12.52334595  F       0.00000000       0.00000000       0.00000000      -0.07977480      -0.73555160       0.87951928      -6.55393314
Ti      18.03186115       7.75871635      17.88806180  T       0.43877561       2.69456020      -1.52667159      -0.01405823      -0.01857311      -0.00785625      -6.67401028
Ti       9.63770550       0.32548265      15.67193598  T       0.46167802      -0.39528397      -0.21557210      -0.00285780      -0.01386068      -0.01167655      -7.46754360
O       13.58065299       5.17380829      15.31231896  T     -21.75069185       5.06818881      -8.96125294       0.00523922      -0.00941339      -0.06092423      -7.06917620
N       17.04077007       3.93579357      18.86605201  T      10.72350641       1.17803755      11.36845430       0.05454350      -0.03362546      -0.05705267      -7.99891043
N       15.81476725       4.01842525      19.29593696  T       1.94234386      -0.64777026       0.20048780      -0.01848245       0.02286005       0.03667712      -8.34159088
C       15.39776118       5.38360382      19.55706366  T      -1.13884980       1.53695957       2.73618099      -0.04905838       0.03567249       0.03585050      -8.74539661
C       15.50973406       3.03546814      20.32812028  T      -0.25239939       0.00065831       2.46333393      -0.00140387      -0.04149240      -0.02798280      -9.70032406
H       19.40486260       4.82994133      19.65117160  T       1.07604572      -0.72950231       0.20010603      -0.00001610       0.03289147      -0.02550483      -3.97148013
H       14.49825605       5.40440907      20.20971631  T      -0.28349037       0.00054588       0.33898678       0.03455663      -0.03235992      -0.02841689      -4.02669430
H       16.21166621       5.95514930      19.98221650  T       0.30005172      -0.02214282       0.16668574      -0.00302069      -0.06722631       0.00772243      -3.79182458
H       14.45341167       3.12043405      20.59155525  T      -0.05172851      -0.10085067       0.05611717      -0.01773018      -0.04620031       0.01555588      -3.45086145
H       15.73345676       2.02935411      19.92369984  T      -0.01646067      -0.16082541       0.18621976       0.02835019      -0.04217988      -0.03631316      -3.69714880
H       16.12029699       3.21231988      21.22954119  T       0.03329502      -0.33362396       0.25496454      -0.00956200      -0.01000996       0.03521654      -3.43123817
