75
Lattice="8.208702087402344 0.0 -0.6319061517715454 -3.009857416152954 14.187996864318848 -0.7898827195167542 0.0 0.0 30.647449493408203" Properties=species:S:1:pos:R:3:move_mask:L:1:momenta:R:3:forces:R:3:energies:R:1 adsorbate_info="_JSON {\"site\": {\"coordinates\": [5.74039078, 8.21739006, 17.58476448], \"connectivity\": 1, \"topology\": [60], \"n_vector\": [-0.494833929904917, -0.7904577614822998, 0.3609929488608431], \"h_vector\": [1.0, 0.0, 0.0], \"site_formula\": {\"Ti\": 1}}, \"smiles\": \"Cl\", \"mdf\": 1.724295665837533, \"adsorbate_formula\": \"HNO\"}" bond_change_count=0 energy=-557.4743041992188 stress="0.0004161684191785753 -7.405735232168809e-06 -3.837082476820797e-05 -7.405735232168809e-06 0.00019800339941866696 1.1930110304092523e-05 -3.837082476820797e-05 1.1930110304092523e-05 0.00020218204008415341" free_energy=-557.4743041992188 pbc="T T F"
In       4.09865046       3.54699922      11.58165550  F       0.00000000       0.00000000       0.00000000      -0.00690686      -0.03732989      -0.56336343      -2.24078727
In       7.10850811       3.54699922      12.37153816  F       0.00000000       0.00000000       0.00000000      -0.37950510       0.03074565      -0.17155792      -3.16075706
In       1.08879316       3.54699922      10.79177284  F       0.00000000       0.00000000       0.00000000       0.11353333      -0.01801734      -0.73398006      -2.19192433
In       2.36570239      10.64099789      12.05558491  F       0.00000000       0.00000000       0.00000000      -0.01202577       0.06847154      -0.44437253      -3.12545347
In       4.55468941      10.64099789       9.84391308  F       0.00000000       0.00000000       0.00000000      -0.33392426       0.03287457      -0.99794602      -2.05710268
In      -0.64415509      10.64099789      11.26570225  F       0.00000000       0.00000000       0.00000000       0.28610402       0.02435365      -0.54162550      -2.69839168
In       4.86378756       3.56894049      14.67850503  T       2.32030253      -0.07212225       2.11688667       0.01368310       0.00462382       0.03451996      -3.16084337
In      -0.40026767       3.59309810      16.07333482  T       0.24238427      -1.13186438      -2.42225639       0.00114484      -0.00027984      -0.00089949      -3.12456441
In       1.86648142       3.56212493      14.07861684  T      -0.95279069       1.42400602       2.31919934       0.02709548       0.00020715       0.00493437      -3.15313721
In       3.20215823      10.65234769      15.00104866  T      -0.92229942      -0.90036408      -1.00220912       0.00796069       0.00838277       0.01539268      -3.16957092
In       5.37555981      10.64099789      12.84546757  F       0.00000000       0.00000000       0.00000000       0.14673188       0.13312864       0.18337721      -3.17372298
In       0.19004781      10.62466206      14.27689002  T      -0.66050372      -0.84827095      -0.50213898       0.01120340       0.00875138      -0.00227374      -3.16610670
In       5.57566701       3.47810519      17.61437410  T      -2.40255341      -0.88906906       1.18665713       0.02189539      -0.01564689       0.00464801      -2.72587657
In       0.52071456       3.75505483      19.45006908  T       2.05546112       0.90562356       1.01848533       0.01411129       0.01290334      -0.01680022      -2.21798611
In       2.62356868       3.64199753      17.16535030  T       0.23427326       0.49506954       2.08557875       0.01596507      -0.00856564      -0.00507834      -2.91105580
In       4.17236670      10.92807986      18.38281787  T      -0.27115994      -0.08734387       1.73741250       0.01408407      -0.02145435       0.02153756      -2.20056486
In      -1.97312211      10.69418894      16.48525140  T       0.57935934       2.02081246      -0.59471157      -0.00461895      -0.00558504       0.01121708      -3.15057325
In       1.02799056      10.82130452      17.50456042  T      -0.95080374       0.54356478      -0.27182518       0.01927480      -0.00706168       0.00082436      -2.48777580
N        3.64762410       0.00149650      13.25567242  T       0.03060001      -0.01924804      -0.19177294      -0.01046269      -0.01355026      -0.01903345     -11.82647133
N        5.83159876       0.00000000      11.10772610  F       0.00000000       0.00000000       0.00000000       0.48971838       0.03649873       1.47005582      -9.56743622
N        0.63275415       0.00000000      12.52951431  F       0.00000000       0.00000000       0.00000000      -0.22940382      -0.20696114      -0.88792527     -11.83103180
N        2.82174134       7.09399843      10.31784344  F       0.00000000       0.00000000       0.00000000      -1.47449207       1.56491101       3.79610229      -8.03599262
N        5.83159876       7.09399843      11.10772610  F       0.00000000       0.00000000       0.00000000       0.73252153       0.00716778       1.74156201      -9.43959236
N        0.63275415       7.09399843      12.52951431  F       0.00000000       0.00000000       0.00000000      -0.37462828      -0.13033931      -0.99177670     -11.76236534
N        4.45340313      -0.02349540      16.20945199  T      -0.09814556       0.05731146       0.32191861      -0.00072322      -0.02665602      -0.01923294     -11.53996181
N        6.64806376       0.01852700      14.07284342  T       0.06638795      -0.06176712      -0.03854199      -0.00140632       0.00162346      -0.00619788     -11.65130329
N        1.43201645       0.05173542      15.43907729  T       0.20403078      -0.08306231      -0.05877341       0.00504989      -0.01445880       0.01133028     -11.58661079
N        3.64591681       7.07238710      13.27626529  T       0.04262482      -0.05611274      -0.05313116       0.00559917      -0.00219048      -0.00600649     -11.67828178
N        6.63337928       7.10292803      14.08058810  T      -0.24435962       0.18054304       0.05014490      -0.00704533      -0.00772226      -0.01018088     -11.67872620
N        1.41615151       7.10822869      15.43822574  T      -0.15721841       0.22739516      -0.08568986       0.02584305      -0.02161539       0.01540020     -11.59428406
N        5.36705532       0.17164078      18.86666695  T       0.81023595       1.67339021      -3.07073164       0.01895684       0.01763678      -0.01666433      -8.74288177
N        7.49619508       0.06021182      17.01125795  T       0.11788980       0.30432546       1.07325561       0.01316075       0.02605962       0.00643864     -11.70649242
N        2.22917728       0.09451801      18.19261089  T      -0.83192354       0.35713983      -1.86514151      -0.02466464      -0.01778153       0.00893895      -9.89112282
N        4.41425177       7.17774559      16.25923147  T      -0.18665814       0.24311988      -0.07560495      -0.00509875      -0.00258633       0.00332360     -11.52310085
N       -0.75544909       7.14753304      17.71424829  T       0.75104938      -0.17153173       0.68335128       0.00650807      -0.02463306      -0.00713480     -11.64314079
N        2.17965240       7.16708134      18.26894347  T      -0.91521901       0.03688989      -1.93891437       0.00273540       0.00404717      -0.00858076      -9.88652992
Ti       4.09865046       8.21739006      11.58165550  F       0.00000000       0.00000000       0.00000000      -0.16696334      -2.36586618      -1.53361487      -8.48791885
Ti      -1.10019410       8.21739006      13.00344467  F       0.00000000       0.00000000       0.00000000      -0.25089863      -0.51349550      -0.61217713      -8.39030457
Ti       1.08879316       8.21739006      10.79177284  F       0.00000000       0.00000000       0.00000000       1.98782611      -1.38472617       0.25453344      -7.37049007
Ti       2.36570239       5.97060633      12.05558491  F       0.00000000       0.00000000       0.00000000       0.11716561       1.20949543      -1.35814881      -8.41544437
Ti       5.37555981       5.97060633      12.84546757  F       0.00000000       0.00000000       0.00000000       0.21029954       0.55855060      -0.70629680      -8.38153362
Ti      -0.64415509       5.97060633      11.26570225  F       0.00000000       0.00000000       0.00000000      -0.92877805       1.19590485       1.28655720      -7.28808832
Ti       2.36570239       1.12339199      12.05558491  F       0.00000000       0.00000000       0.00000000      -0.45753878      -0.45440328       0.48796505      -7.68301964
Ti       5.37555981       1.12339199      12.84546757  F       0.00000000       0.00000000       0.00000000       0.21638049      -0.39387640      -0.77816188      -8.39127350
Ti       7.56454706       1.12339199      10.63379574  F       0.00000000       0.00000000       0.00000000      -0.86817807      -1.21235895       1.15272152      -7.31578255
Ti       4.09865046      13.06460476      11.58165550  F       0.00000000       0.00000000       0.00000000      -0.00683410       0.50837469      -0.64567018      -8.38245773
Ti      -1.92106426      13.06460476      10.00189018  F       0.00000000       0.00000000       0.00000000       0.29807401       0.44220620       1.42788827      -6.49969292
Ti       1.08879316      13.06460476      10.79177284  F       0.00000000       0.00000000       0.00000000       0.81075382       0.87514615       0.17652631      -7.40869427
Ti       4.89884012       8.23081859      14.49876183  T      -0.28015792       0.27122920      -1.00753259       0.02659719       0.01549210      -0.03942915      -8.20373249
Ti      -0.29303096       8.23038438      15.95537779  T      -0.77397705      -1.40826290       0.42121495       0.00541969      -0.00164106      -0.00859259      -8.11170959
Ti       1.91511267       8.20982518      13.69921921  T       0.10985198      -0.82470494      -0.40325973      -0.00716346      -0.02100095      -0.01877647      -8.24013901
Ti       3.18260156       6.01078752      15.03993885  T      -1.19812165       0.03668355      -0.16570382      -0.04019172      -0.01531290      -0.02525612      -8.20874882
Ti       6.15851684       6.04027641      15.83963071  T       0.45412378       0.68392096       1.52407115       0.01289203       0.00430332      -0.01798071      -8.12442303
Ti       0.13982482       5.98418674      14.20518060  T      -0.88298478       0.01919673      -1.14575060       0.01145479       0.02361022      -0.02957258      -8.25465012
Ti       3.19746347       1.12818794      14.96827363  T       0.38317417      -1.09761935      -0.59934360      -0.00867594       0.00136593       0.00079705      -8.18865013
Ti       6.16590588       1.15590185      15.78989525  T      -0.24590414      -0.69292141       0.03395422      -0.02018111       0.00906013       0.00587780      -8.18745613
Ti       0.15187137       1.13230295      14.16560535  T      -0.76589474      -0.62338136      -0.05138521       0.01239114      -0.01933885      -0.01882985      -8.26727200
Ti       4.91969942      13.09279391      14.52363979  T      -0.13881106       0.89969151       1.88911248       0.02014329      -0.00002743       0.00663853      -8.19469070
Ti      -1.10019410      13.06460476      13.00344467  F       0.00000000       0.00000000       0.00000000      -0.00935931       0.15624809      -0.92860258      -8.28467369
Ti       1.90632011      13.06929786      13.69224778  T       0.01391720       0.27372955      -0.76333277      -0.00047179       0.00251925       0.01664867      -8.26105404
Ti       5.74712355       8.33334384      17.31727228  T       0.84909074       1.07703271      -4.42073798      -0.01361700       0.01643333      -0.01392257      -8.02811623
Ti       0.64708238       8.23123787      18.67485954  T       2.68025899      -0.80827373      -2.87597159      -0.00634052      -0.02522610       0.00881425      -7.41366386
Ti       2.64587465       8.30040303      16.59140430  T      -0.55399067      -1.61536670       0.64167027      -0.01963305      -0.01162066       0.01659742      -8.27450943
Ti       3.99462396       6.29841305      18.12464907  T      -0.75038761       2.19924832      -0.30341955      -0.04246140       0.02984551      -0.05524250      -8.98567772
Ti      -1.55389652       6.16787015      19.39232878  T      -3.07014906       1.40770476      -0.20602372       0.00687528      -0.00101132      -0.02477609      -8.20199203
Ti       0.91642243       6.00483176      17.15797449  T      -0.38493297       1.02578208       0.50966341      -0.00637889      -0.00836361       0.00152839      -8.34519482
Ti       3.95603594       1.04479102      17.88407508  T      -0.76030295      -3.15615605       1.43817565       0.03168726       0.01437201      -0.00792507      -8.36345577
Ti       6.91762555       1.16699015      18.59868926  T      -2.89235649      -1.60784865      -0.90004750      -0.03642254      -0.01034552      -0.05309884      -7.73208714
Ti       0.95586682       1.22691637      17.07983899  T      -0.41738619       0.51060610      -1.07604146       0.00359260       0.01303021       0.00470335      -8.39443684
Ti      -2.34574704      13.18316449      17.87307402  T       0.99565481       2.31154431      -1.45364080       0.00415054      -0.00658894       0.02932218      -7.48741102
Ti      -0.31051166      13.07135743      15.83061202  T       0.21287825       0.37400312       2.27580533       0.02786551       0.01779950      -0.00200322      -8.38764000
Ti       2.78624660      13.06653247      16.60052432  T       0.94098450       0.40916258       1.55006326      -0.02837117       0.02229458       0.03497384      -8.50239754
N        5.26719673       7.59917004      19.04764451  T      -0.10682409       0.31119999       2.25909150       0.00756677      -0.02360433       0.02950453      -9.41177368
O        5.12322663       5.05251391      19.09296512  T       1.76776724      -4.17925020      -1.09645564      -0.01070188      -0.01740432       0.02302429      -7.90585327
H        5.11041121       8.04066742      19.94872750  T       0.08570754       0.04302520       0.29085695      -0.00994940      -0.02979168       0.03448399      -3.79652190
