82
Lattice="14.653685569763184 -3.0000001167615996e-16 -2.204113721847534 -8.411406517028809 11.436505317687988 1.0077073574066162 -0.0 3.5000000656357872e-15 28.464778900146484" Properties=species:S:1:pos:R:3:move_mask:L:1:momenta:R:3:forces:R:3:energies:R:1 adsorbate_info="_JSON {\"site\": {\"coordinates\": [-2.2125327965877286, 3.0815435233333326, 20.494018793949177], \"connectivity\": 3, \"topology\": [34, 36, 46], \"n_vector\": [-0.03494851288359658, 0.566238527826642, 0.823500170644756], \"h_vector\": [-0.18238669579361338, 0.9788678479071886, 0.09248150913040412], \"site_formula\": {\"Ru\": 3}}, \"smiles\": \"S1S\", \"mdf\": 1.9578613568915597, \"adsorbate_formula\": \"HN\"}" bond_change_count=0 energy=-774.3151245117188 stress="0.0005454072379507124 2.085879032165394e-06 -9.0161403932143e-05 2.085879032165394e-06 0.0005907124723307788 -3.4354296076344326e-05 -9.0161403932143e-05 -3.4354296076344326e-05 0.00010215251677436754" free_energy=-774.3151245117188 pbc="T T F"
Ta      10.72976685       0.09530421      14.02861214  F       0.00000000       0.00000000       0.00000000      -0.05804990      -0.69637394      -1.66507185     -12.45534515
Ta       1.09641480       1.23895478      14.02861214  F       0.00000000       0.00000000       0.00000000      -1.23306990      -0.34565532       0.32922533     -11.44188595
Ta       1.29424419       4.83129843      16.51051076  T       2.50588407       1.17388978      -1.84674507       0.05417722       0.00945359      -0.02095065     -12.79381561
Ta       6.30045395       2.30564248      18.82220472  T      -1.83367688       2.16054141      -0.22612383       0.02733755       0.01330552      -0.01349901     -11.51582527
Ta      11.16879387       3.59397016      16.96140804  T       1.86672246       1.34461263       2.39447143      -0.02725077       0.00367488      -0.02028633     -12.63217735
Ta       7.70754726       2.21312549      15.03200683  T       0.03080151      -4.93480791      -2.26227815       0.01257063       0.00413530       0.01210403     -12.92387676
Ta      -2.22530041       3.26740883      14.95836486  T      -1.28163994      -1.47492059       0.27593792       0.01436722       0.01946318       0.01555026     -11.60926723
Ta       2.67122089       1.10450861      17.63004097  T      -1.43214169       0.08366563       2.23215792       0.02716621       0.01220281      -0.01928580     -12.87616062
Ta       3.10928845       4.47929811      13.17848206  F       0.00000000       0.00000000       0.00000000       0.29951346       0.50331622       1.44711757     -11.01855278
Ta       7.97511327       5.78513238      18.21331816  T      -0.95193604      -0.22386290       2.95527302       0.00454408      -0.01483810      -0.02258718     -11.84381580
Ta       6.52406359       5.81355715      14.53246593  F       0.00000000       0.00000000       0.00000000      -0.02029406      -0.62099349      -1.84974980     -12.47539139
Ta      -3.10928845       6.95720768      14.53246593  F       0.00000000       0.00000000       0.00000000      -1.20082605      -0.26361579       0.21927164     -11.44664383
Ta      -2.83909554      10.53937376      16.99522720  T       1.67269650      -2.08844813       3.61302108       0.03994113      -0.01010805      -0.02054480     -12.84317207
Ta       1.86784948       8.12782280      19.37279036  T      -3.88065398       0.81159597       1.87857666      -0.00747585       0.00311218       0.00360915     -11.59507275
Ta       7.03046822       9.29943403      17.74421478  T       0.58452020       0.82108179       2.44525328      -0.01946992      -0.00821747      -0.02001226     -12.17134762
Ta       3.45455324       7.91308785      15.55442616  T      -0.95449008      -0.98598684       0.26084524      -0.00727709       0.00282894       0.00124633     -12.90854263
Ta      -6.43948328       8.97744433      15.46566919  T      -0.42290073      -1.46553833      -0.44529467      -0.00560129       0.01737049      -0.00394970     -11.64133644
Ta      -1.67295707       6.89335755      18.15267554  T       1.09880103       1.15826612       2.21960499       0.02370606       0.02222240      -0.00232673     -12.90471458
Ta      -1.09641480      10.19755077      13.68233585  F       0.00000000       0.00000000       0.00000000       0.28404036       0.58104807       1.49602664     -11.04013157
Ta       3.80706865      11.58614362      18.73094611  T       0.00769833       1.79336351       2.23630353      -0.02070326       0.02694863       0.00805384     -11.71089172
Ru       9.97864660       1.11337943      16.36463944  T       1.44235955       0.08046705      -0.38550060       0.00101729       0.00756659       0.00529748      -9.47776604
Ru       0.33209067       2.06970104      16.47298640  T      -0.83724147      -0.67081874       1.73068093      -0.01691449       0.01380360       0.01933387      -9.35537052
Ru       0.99934348       5.38818977      18.93603549  T       1.48212512       0.83821010       1.63904962      -0.03014086       0.02325992       0.00351849      -8.47381306
Ru       5.41565323       3.33552551      14.28071499  F       0.00000000       0.00000000       0.00000000      -0.77221704       0.87909901      -1.06850791      -8.14169407
Ru      10.43598652       4.47917604      12.07660198  F       0.00000000       0.00000000       0.00000000       0.73915410       0.60790157       0.76795614      -7.31729984
Ru      10.23236179       2.76397467      14.28036213  F       0.00000000       0.00000000       0.00000000       0.94557691       0.23524070       0.24506715      -9.33451176
Ru       0.59900963       3.90762520      14.28036213  F       0.00000000       0.00000000       0.00000000       0.24482918      -1.31039357       0.17013547      -8.24017811
Ru       5.12202071       1.70778118      16.41367992  T       0.08720641       1.27853843       0.28067378       0.01174647       0.03254332       0.01467773      -9.44146252
Ru       5.66826390       4.78071292      19.03064101  T       1.19735003      -2.10792625      -0.99220627       0.01610547       0.03260905      -0.00557837      -7.66185760
Ru       0.08721174       0.38099878      18.88091830  T      -0.49773335       0.58717333       1.46760428       0.01391737       0.02715709      -0.03498176      -8.97348690
Ru      12.55075353       1.61082026      15.26145079  T      -0.66100462      -0.34508769       0.05151881       0.01082656       0.00109263       0.06266391      -9.40776825
Ru       2.96765931       2.60756001      15.18979097  T       0.10758213      -1.06878796      -1.03674363      -0.00109856       0.04984808       0.02144496      -9.23296165
Ru       7.84470889       0.60769354      17.77677629  T      -0.13169137      -0.78557800       0.39731036       0.04475516       0.02110073       0.01204876      -8.57494831
Ru       7.92622137       3.90744233      13.17848206  F       0.00000000       0.00000000       0.00000000      -0.16940078       0.89015538       0.43793100      -7.71349573
Ru      -1.61984872       5.02414014      19.98128501  T      -3.00034692      -3.34274690       1.00504055       0.05305225       0.07115668      -0.03657562      -7.98401833
Ru       8.42340183       1.23907673      12.92637920  F       0.00000000       0.00000000       0.00000000       0.18170701      -1.66309428       0.35980007      -7.53946829
Ru      -1.20139899       2.44874674      19.88922478  T      -2.82795527       0.08866487       1.03804116       0.04540807      -0.04139346      -0.07099327      -8.59072208
Ru       3.15202803      -0.02753526      14.90583463  T      -1.06857612       0.24150142      -1.87252646       0.02187400      -0.03620077      -0.02034194      -8.84574986
Ru       3.42709990       3.96528983      17.96316126  T       0.37151893       1.69359373       0.39645908       0.01867655       0.05035886      -0.03393625      -8.91549206
Ru       8.87186387       4.74681377      15.74619389  T       0.93779183       1.45872120       0.05534576      -0.01389630       0.00914923       0.00592279      -9.38828278
Ru       3.99808410       5.10576126      15.73099879  T       1.39306582      -0.64978603       1.17569958      -0.01736546       0.01741059       0.02757545      -9.34250546
Ru      13.24004555       0.66697699      12.92673206  F       0.00000000       0.00000000       0.00000000       0.10503930       0.17512542      -0.60902339      -8.50559902
Ru      -1.04075070       3.98231260      17.56871950  T       0.74518992       0.75726687       2.20558108       0.00521777       0.00939303       0.01845099      -9.44209766
Ru       4.00836508       1.94892503      19.47395970  T      -0.24219562       1.11343745      -3.26444313      -0.06836891      -0.03958860      -0.02380639      -8.01963902
Ru       8.63279525       3.20472032      17.96388838  T       2.58992519      -0.90930440      -0.38148147       0.00547758       0.01915109      -0.00318611      -8.66778278
Ru       5.91283369       0.66715997      14.02861214  F       0.00000000       0.00000000       0.00000000      -0.28528309       0.22352326      -0.43569592      -8.52285862
Ru      10.96354031       1.94158350      18.75625646  T       1.55070140       2.63946767      -3.05691743       0.00182515      -0.00072575      -0.03701246      -8.25402927
Ru      -3.32564523       5.20168950      16.89983966  T       2.16133852       0.68222103       0.13453954      -0.00185677      -0.02706427      -0.00676233      -9.44761562
Ru       1.29511468       2.76938572      18.92807018  T       0.05423744       0.02754293      -0.37712862       0.02373847       0.01051879      -0.06068303      -8.10058689
Ru       6.37232568       4.10676910      16.61576527  T       1.30599420       0.90649422      -0.99345184      -0.01088485       0.01573628       0.00009242      -9.38120651
Ru       5.67564652       6.78489702      16.77992446  T      -2.32887438       1.74952554      -1.21149479      -0.00060374       0.02598598       0.03092697      -9.47242165
Ru      -3.89788830       7.81871028      16.96605119  T       0.73369181      -2.00431698       0.27418942       0.00689483       0.01739375       0.00907456      -9.40704823
Ru      -3.14168139      11.19940985      19.40090950  T       0.04359039       0.01509702      -0.39159218      -0.02304739       0.03615584       0.01426762      -8.45262146
Ru       1.20994973       9.05377865      14.78456879  F       0.00000000       0.00000000       0.00000000      -0.65806633       0.94447398      -0.98774302      -8.14963150
Ru       6.23028326      10.19742870      12.58045483  F       0.00000000       0.00000000       0.00000000       0.72866070       0.65324128       0.81160855      -7.34258175
Ru       6.02665806       8.48222733      14.78421593  F       0.00000000       0.00000000       0.00000000       0.85769939       0.23609346       0.31731167      -9.31087303
Ru      -3.60669374       9.62587833      14.78421593  F       0.00000000       0.00000000       0.00000000       0.24291249      -1.26017058       0.19778562      -8.22301197
Ru       0.89065307       7.41577738      16.95801160  T      -0.20294351       1.79861770      -0.00109508       0.02398603       0.00438486       0.00543167      -9.49525547
Ru       1.64189265      10.65254110      19.59417721  T       3.11999788       0.68855045      -1.04711868      -0.02754766       0.01334816       0.00089165      -7.77218914
Ru      -4.08573512       6.17905669      19.39105988  T       1.34493312       0.17433438       2.51147824      -0.01743120       0.00019915      -0.04763401      -8.82279015
Ru       8.32256110       7.37044865      15.77418364  T      -0.65307865       0.44144305       0.53963652      -0.02542050      -0.00014113       0.01931641      -9.40924931
Ru      -1.21765841       8.32791649      15.66499919  T      -1.20492952      -1.67500595      -3.18325691      -0.00668608       0.02677534      -0.00555333      -9.23515415
Ru       3.56672053       6.50444761      18.36765643  T      -0.20884523       0.09411228       3.04285972       0.02364081       0.03290881      -0.00939449      -8.60682964
Ru       3.72051811       9.62569523      13.68233585  F       0.00000000       0.00000000       0.00000000      -0.23182070       0.84884501       0.41315347      -7.65913534
Ru      -5.80258914      10.87027689      20.39717039  T      -3.14344200       0.32228729      -1.58365099       0.07134539       0.05237605       0.03234702      -7.93458557
Ru       4.21769905       6.95732975      13.43023300  F       0.00000000       0.00000000       0.00000000       0.19687863      -1.62026429       0.55020440      -7.53377247
Ru      -5.50480435       8.12081949      20.52622845  T      -2.30470387       0.33786081      -0.31640320       0.01800227      -0.01158850       0.00819435      -7.99924612
Ru      -1.04558208       5.69043754      15.40921200  T      -1.87875909      -0.70931924      -2.10960597       0.00464108      -0.01311529      -0.00097161      -8.84700203
Ru      -0.62628841       9.47613872      18.36369979  T      -0.30473308       1.18079565      -0.56901399       0.01223258       0.00854908       0.00817096      -9.05937290
Ru       4.68584416      10.39415698      16.23243357  T       0.79979667      -0.11417535      -0.36608105      -0.00756266       0.02377188       0.02008170      -9.35147476
Ru      -0.14308284      10.87225842      16.24106505  T      -0.09741366      -2.08483820       0.18189903      -0.04578867       0.02828129       0.02226716      -9.35271358
Ru       9.03434277       6.38522959      13.43058491  F       0.00000000       0.00000000       0.00000000       0.02489372       0.17073794      -0.57756257      -8.48774433
Ru      -5.21248425       9.72928996      18.03094702  T      -1.08924294      -0.10046118      -1.23807051      -0.01293215      -0.01488272      -0.04871899      -9.36962795
Ru      -0.38408328       7.47593849      20.05277152  T       0.46748521       0.63739279      -2.91755879      -0.01541328       0.01233687      -0.00354445      -7.85783815
Ru       4.42339145       9.03617934      18.52462342  T      -0.70672268       0.25135355       0.54382675      -0.01439811       0.00635737       0.00709935      -8.66910076
Ru       1.70713055       6.38541269      14.53246593  F       0.00000000       0.00000000       0.00000000      -0.39199680       0.21091482      -0.44515479      -8.54639053
Ru       6.52605850       7.42858296      19.22969776  T       3.33238121      -1.14581919      -3.13146814       0.01202106       0.03768519      -0.03021193      -7.69135284
Ru      -7.54378454      10.87935022      17.42346152  T       0.51444565       3.41897741       1.42691333      -0.02515551      -0.01732599      -0.00501949      -9.40662479
Ru      -2.99926996       8.61543605      19.43613892  T       0.43470981      -0.85275477      -1.04000778       0.02432601      -0.01060602       0.00937828      -8.05146885
Ru       2.16865353       9.81003059      17.13853384  T      -0.16814975      -0.75373728      -1.69411497      -0.00724230       0.01080532      -0.01170371      -9.45486832
N       -2.31901730       3.53888326      21.11999697  T       3.28950943      -1.12184814      -3.41239377      -0.04903967      -0.02622221       0.01800102      -9.39648342
H       -2.01731216       3.69213096      22.08716972  T      -0.57500535      -0.10984363      -0.07219950       0.02215502       0.00897512       0.07892618      -3.80374122
