82
Lattice="14.653685569763184 -3.0000001167615996e-16 -2.204113721847534 -8.411406517028809 11.436505317687988 1.0077073574066162 -0.0 3.5000000656357872e-15 28.464778900146484" Properties=species:S:1:pos:R:3:move_mask:L:1:momenta:R:3:forces:R:3:energies:R:1 adsorbate_info="_JSON {\"site\": {\"coordinates\": [12.237409512263996, 1.366078137437336, 18.121954440248615], \"connectivity\": 3, \"topology\": [19, 36, 46], \"n_vector\": [0.33656077291811204, -0.4199561194463209, 0.8428307682283263], \"h_vector\": [0.5143122846571127, -0.6991637586031949, -0.4966416338836632], \"site_formula\": {\"Ta\": 1, \"Ru\": 2}}, \"smiles\": \"S1S\", \"mdf\": 1.6874178368732407, \"adsorbate_formula\": \"HN\"}" bond_change_count=0 energy=-774.608642578125 stress="0.0005600579315796494 7.774038749630563e-06 -9.132374543696642e-05 7.774038749630563e-06 0.0006108586676418781 -4.234572043060325e-05 -9.132374543696642e-05 -4.234572043060325e-05 0.00010723106242949143" free_energy=-774.608642578125 pbc="T T F"
Ta      10.72976685       0.09530421      14.02861214  F       0.00000000       0.00000000       0.00000000       0.11609136      -0.63568783      -1.83764553     -12.47453499
Ta       1.09641480       1.23895478      14.02861214  F       0.00000000       0.00000000       0.00000000      -1.23616743      -0.35994869       0.22611734     -11.43797016
Ta       1.32382535       4.82300439      16.48727989  T       2.53454915       1.18109951      -1.88013728      -0.00735790       0.02325797       0.05186892     -12.79969597
Ta       6.23564485       2.28809758      18.79086028  T      -1.84315969       2.16585825      -0.25707155      -0.05140066       0.03005068       0.00774604     -11.54138374
Ta      11.16929771       3.54600649      17.15203833  T       1.79413347       0.95461603       2.55876660      -0.00133759       0.00165120       0.01018763     -12.23206043
Ta       7.69951357       2.19776838      15.05615867  T      -0.02938953      -4.92125205      -2.28980256      -0.00875908       0.00188605      -0.01732421     -12.91198921
Ta      -2.23220412       3.25726297      14.98265184  T      -1.28179316      -1.49134885       0.21691132      -0.01600885       0.02477220       0.00747877     -11.62782288
Ta       2.62470847       1.14809089      17.66971315  T      -1.42936286       0.08930719       2.24871036      -0.01570871      -0.02062353      -0.05308235     -12.86239052
Ta       3.10928845       4.47929811      13.17848206  F       0.00000000       0.00000000       0.00000000       0.33401120       0.50659806       1.43574905     -11.02662373
Ta       7.94546652       5.87220393      18.27906759  T      -0.90885806      -0.24152630       2.94725535       0.03743303      -0.03176016      -0.00382870     -11.75644112
Ta       6.52406359       5.81355715      14.53246593  F       0.00000000       0.00000000       0.00000000       0.06377263      -0.70413512      -1.86254478     -12.47367859
Ta      -3.10928845       6.95720768      14.53246593  F       0.00000000       0.00000000       0.00000000      -1.21130764      -0.33124965       0.26504937     -11.43371677
Ta      -2.88621718      10.54417563      16.98933756  T       1.67469240      -2.09165209       3.60909747       0.00549835       0.04266477       0.03848830     -12.80842209
Ta       2.03166242       8.02323416      19.32339869  T      -3.87366308       0.86243683       1.82862275      -0.08251119       0.01475481       0.00707601     -11.51503658
Ta       7.01203200       9.35824363      17.73726750  T       0.56818882       0.80242607       2.42675188       0.05493373       0.07177548      -0.03994429     -12.16240311
Ta       3.48774405       7.90001372      15.55553516  T      -0.95996256      -0.95318725       0.28398377      -0.01864932       0.02356510      -0.00589609     -12.91285419
Ta      -6.43117292       8.98192640      15.46285335  T      -0.41919102      -1.47131984      -0.44076968      -0.01440585       0.01163968       0.00932908     -11.63618088
Ta      -1.56964870       6.80006922      18.12489926  T       1.33412674       1.14476485       2.50552714      -0.01165531       0.00326509      -0.03064477     -12.85591698
Ta      -1.09641480      10.19755077      13.68233585  F       0.00000000       0.00000000       0.00000000       0.34673712       0.55009377       1.49449301     -11.03120995
Ta       3.77130918      11.56929256      18.74504899  T       0.24194696       1.77867292       2.57827696      -0.01535827       0.05303693       0.02033353     -12.28403282
Ru       9.97693651       1.07381271      16.31454279  T       1.60329397      -0.01857591      -0.01261435       0.00481921       0.01021458      -0.00834635      -9.47471619
Ru       0.32848933       2.05219448      16.45807749  T      -0.83515967      -0.68582965       1.71601388       0.01129445       0.01260507       0.01137550      -9.37436485
Ru       1.09997136       5.48383574      18.89007492  T       1.60600139       1.09466902       1.59381288       0.00823887      -0.01635948      -0.00328958      -8.50078487
Ru       5.41565323       3.33552551      14.28071499  F       0.00000000       0.00000000       0.00000000      -0.68622369       0.90773469      -1.07876384      -8.13601112
Ru      10.43598652       4.47917604      12.07660198  F       0.00000000       0.00000000       0.00000000       0.77356142       0.65796477       0.87328541      -7.32416153
Ru      10.23236179       2.76397467      14.28036213  F       0.00000000       0.00000000       0.00000000       0.89128911       0.22985823       0.35493496      -9.32515907
Ru       0.59900963       3.90762520      14.28036213  F       0.00000000       0.00000000       0.00000000       0.15402094      -1.27037740       0.17343169      -8.24337482
Ru       5.09823614       1.72067474      16.41355223  T       0.09737790       1.27636641       0.27923481       0.01157367      -0.03378569      -0.00921810      -9.44316292
Ru       5.76855122       4.77245878      19.09274304  T       1.20191890      -2.11273076      -0.98933047       0.01671302       0.01004383      -0.00819461      -7.78340101
Ru       0.05998765       0.45242870      18.87576146  T      -0.46845829       0.99606494       1.25179894       0.06083320      -0.03439184      -0.04302280      -8.89590073
Ru      12.55190926       1.62099914      15.33515479  T      -0.53450123      -0.42925403       0.49300100      -0.03352746       0.01110864       0.01519294      -9.40626335
Ru       2.96344767       2.61645646      15.18559890  T       0.10898514      -1.06887107      -1.03964383       0.01447441      -0.00252531      -0.00922519      -9.23434067
Ru       7.89417264       0.68076508      17.83353192  T      -0.01328221      -0.75396833       0.43840769      -0.00703216       0.02850738       0.00910705      -8.70122242
Ru       7.92622137       3.90744233      13.17848206  F       0.00000000       0.00000000       0.00000000      -0.18853851       0.80367029       0.49026832      -7.67292023
Ru      -1.65816881       5.14421971      19.86370270  T      -1.42425569      -0.73411742      -1.21190940       0.02040714       0.03508466      -0.01085502      -7.93670940
Ru       8.42340183       1.23907673      12.92637920  F       0.00000000       0.00000000       0.00000000       0.15698314      -1.61962950       0.51734364      -7.53242207
Ru      -1.26951367       2.45800939      20.01364575  T      -1.59306929      -2.50381899       1.69302139      -0.04576880      -0.03723928       0.00974944      -8.87064171
Ru       3.15231077      -0.02468550      14.90380822  T      -1.06616824       0.24162314      -1.87705407      -0.00233313       0.00745600       0.01037655      -8.85014153
Ru       3.48959814       3.90046130      17.91579033  T       0.36409028       1.69314011       0.39137152       0.00742211       0.02011104      -0.00373535      -8.97120667
Ru       8.86904441       4.71585282      15.73714019  T       0.88334512       1.50420820       0.10653468       0.00283227       0.00161515       0.01080143      -9.35139179
Ru       4.02351268       5.12093784      15.73371681  T       1.39061655      -0.65250619       1.17451546      -0.00004605       0.03399113       0.00581647      -9.33835411
Ru      13.24004555       0.66697699      12.92673206  F       0.00000000       0.00000000       0.00000000       0.03707910       0.20885538      -0.48279959      -8.51032066
Ru      -1.01260787       3.96429350      17.52728420  T       1.06190120       0.71664196       1.55130990      -0.00628713       0.02262023       0.01414350      -9.36775875
Ru       3.96230813       1.92370520      19.50524758  T      -0.23671085       1.10182944      -3.26145033       0.01671648       0.00817862       0.00991917      -7.94694567
Ru       8.60853947       3.37358265      18.05517572  T       2.43175275      -0.51978988      -0.45960218       0.02499014      -0.02057103      -0.01372993      -8.80750275
Ru       5.91283369       0.66715997      14.02861214  F       0.00000000       0.00000000       0.00000000      -0.25655597       0.29528692      -0.48366335      -8.53251839
Ru      10.64894914       1.75441507      18.76343214  T       1.92737865      -0.96978181      -3.64700858      -0.04430950       0.02729433       0.01001918      -8.42257309
Ru      -3.34437371       5.15842545      16.94223071  T       2.11603359       0.73462060       0.06694761      -0.02044024      -0.01308320       0.00401051      -9.42719555
Ru       1.23386370       2.84902838      18.90763647  T      -0.10634924      -0.06938715      -0.27878760       0.00470752       0.03584120      -0.00409609      -8.05433750
Ru       6.38266591       4.09348383      16.62265551  T       1.35515114       0.87631738      -0.97303665      -0.01533113       0.01935931       0.00284877      -9.40404510
Ru       5.72694253       6.79147084      16.78540704  T      -2.32705302       1.74132761      -1.21335439      -0.02186309       0.01986648      -0.02718598      -9.47363281
Ru      -3.88307601       7.78440169      16.96917152  T       0.71730543      -1.99562789       0.27442420       0.00913590      -0.02419598      -0.00758280      -9.36390686
Ru      -3.14922139      11.16209817      19.40261108  T       0.04411422       0.01019386      -0.39088270       0.03887669      -0.02721465       0.00151697      -8.48407078
Ru       1.20994973       9.05377865      14.78456879  F       0.00000000       0.00000000       0.00000000      -0.77897841       0.94115293      -1.13220346      -8.13368511
Ru       6.23028326      10.19742870      12.58045483  F       0.00000000       0.00000000       0.00000000       0.73625869       0.64786005       0.78472257      -7.32234716
Ru       6.02665806       8.48222733      14.78421593  F       0.00000000       0.00000000       0.00000000       0.95432317       0.26106384       0.31032985      -9.30906582
Ru      -3.60669374       9.62587833      14.78421593  F       0.00000000       0.00000000       0.00000000       0.16179852      -1.33176732       0.12136343      -8.24166870
Ru       0.89968577       7.44795554      16.92358932  T      -0.19761170       1.78391831       0.00174801      -0.00688476      -0.03807534      -0.01846850      -9.42740726
Ru       1.52562959      10.47634976      19.52767553  T       2.72547070       1.31536157      -1.12339673       0.00987065       0.02853405       0.01181594      -7.75926304
Ru      -4.20220751       6.12455795      19.45178068  T       0.93227138       0.14939553       2.61549776       0.02708876       0.01492244      -0.04194346      -8.89788914
Ru       8.33799333       7.35215672      15.77584513  T      -0.63711976       0.42652251       0.54485114      -0.00981857       0.01934941      -0.00123757      -9.40500736
Ru      -1.23866397       8.34743106      15.69622416  T      -1.20853028      -1.67680928      -3.18478041       0.01674008       0.01229294      -0.00356402      -9.23657799
Ru       3.72030743       6.40485170      18.39925148  T      -0.21213668       0.09110177       3.03773102       0.00311619      -0.00104669       0.02079900      -8.64694214
Ru       3.72051811       9.62569523      13.68233585  F       0.00000000       0.00000000       0.00000000      -0.24475418       0.81458569       0.46676105      -7.65614891
Ru      -5.80357451      10.89419900      20.41514102  T      -3.12547107       0.32720966      -1.56639779      -0.03451622      -0.01421573      -0.04323196      -7.91449308
Ru       4.21769905       6.95732975      13.43023300  F       0.00000000       0.00000000       0.00000000       0.18043016      -1.62196422       0.44548696      -7.53469753
Ru      -5.50488382       8.17146863      20.54396854  T      -2.29085956       0.31611661      -0.31834131       0.01508629       0.04138693      -0.00709115      -8.00578213
Ru      -1.06220471       5.69325898      15.41008372  T      -1.86940231      -0.69945577      -2.15276099       0.00899843      -0.01526575       0.00513708      -8.84539127
Ru      -0.78054249       9.59536384      18.41044398  T      -0.33196211       1.15803362      -0.61836299      -0.01848598       0.00880623       0.01024206      -8.94668674
Ru       4.69758933      10.42365175      16.21374924  T       0.80817694      -0.16390469      -0.40075752       0.01493688       0.00533294       0.02657148      -9.36328983
Ru      -0.17504256      10.85477481      16.25287859  T      -0.10713556      -2.09756041       0.19474557      -0.00036991       0.02787992       0.00707071      -9.33884907
Ru       9.03434277       6.38522959      13.43058491  F       0.00000000       0.00000000       0.00000000       0.07863307       0.13475204      -0.58356768      -8.50726223
Ru      -5.21566942       9.71056659      18.03512060  T      -1.07646980      -0.10746489      -1.23538640      -0.00457509       0.01729582       0.00137585      -9.38334370
Ru      -0.27401499       7.61826063      19.97265458  T       0.64024983       0.87081320      -2.96333107       0.04078496      -0.00176090      -0.00444263      -7.91591644
Ru       4.41115681       9.02496515      18.48293469  T      -0.76826735       0.33166560       0.43842224       0.01555602       0.01828646       0.01597358      -8.79016399
Ru       1.70713055       6.38541269      14.53246593  F       0.00000000       0.00000000       0.00000000      -0.35780603       0.25778854      -0.46418077      -8.54412651
Ru       6.51279729       7.51817450      19.25941611  T       3.35216360      -1.15798369      -3.12442212      -0.00237250       0.03464920       0.06543624      -7.74891949
Ru      -7.52147274      10.86901987      17.41430749  T       0.52683921       3.40569906       1.38708734      -0.02457891      -0.01519211       0.00509146      -9.41250134
Ru      -3.01979702       8.50920884      19.38771227  T       0.48684642      -0.96964504      -0.98896105       0.01911002       0.05268052      -0.00744863      -8.01679516
Ru       2.20416727       9.80886365      17.09302908  T      -0.19531933      -0.78607970      -1.64590622      -0.05710743       0.03674430       0.01351029      -9.40995407
N       12.53359714       1.47229483      19.30456591  T      -1.64267298       0.43552619      -1.43087204       0.06903978       0.03972983      -0.05460565      -9.12775421
H       12.83166815       1.67044138      20.26745466  T       0.81312436       0.96100431      -0.28198345      -0.01708438       0.04069138      -0.00314184      -3.82021642
