82
Lattice="14.653685569763184 -3.0000001167615996e-16 -2.204113721847534 -8.411406517028809 11.436505317687988 1.0077073574066162 -0.0 3.5000000656357872e-15 28.464778900146484" Properties=species:S:1:pos:R:3:move_mask:L:1:momenta:R:3:forces:R:3:energies:R:1 adsorbate_info="_JSON {\"site\": {\"coordinates\": [4.172621249999997, 10.006866455, 18.4685421], \"connectivity\": 2, \"topology\": [19, 74], \"n_vector\": [0.23082376190073134, -0.004841306816715165, 0.9729835315617119], \"h_vector\": [-0.1824483802867846, 0.9788694904136688, 0.09234234818334103], \"site_formula\": {\"Ta\": 1, \"Ru\": 1}}, \"smiles\": \"S1S\", \"mdf\": 1.6566947208856144, \"adsorbate_formula\": \"HN\"}" bond_change_count=0 energy=-774.5648803710938 stress="0.0005457589286379516 -2.1714441800213535e-07 -8.405186963500455e-05 -2.1714441800213535e-07 0.0006120025063864887 -1.8354245185037144e-05 -8.405186963500455e-05 -1.8354245185037144e-05 8.832194725982845e-05" free_energy=-774.5648803710938 pbc="T T F"
Ta      10.72976685       0.09530421      14.02861214  F       0.00000000       0.00000000       0.00000000       0.05915108      -0.62751776      -1.81621146     -12.46414948
Ta       1.09641480       1.23895478      14.02861214  F       0.00000000       0.00000000       0.00000000      -1.28013122      -0.31366727       0.32459098     -11.45702648
Ta       1.31983507       4.81793308      16.51472582  T      -1.81301372       0.41114581       3.34715175      -0.02119610       0.00943089       0.00192821     -12.83269215
Ta       6.24799998       2.36688671      18.87624892  T      -0.73073531      -2.58683869      -0.02194469      -0.00345170      -0.02386629      -0.00651601     -11.47557926
Ta      11.25266812       3.62769650      17.18375523  T      -1.25476625       0.94929628       4.39291056      -0.01284742      -0.00058922      -0.01617301     -12.21089554
Ta       7.69543795       2.22013565      15.03968129  T      -0.68332353       2.74919711      -5.45192542       0.01344072       0.00453331       0.00872540     -12.94078541
Ta      -2.22965565       3.25918372      14.96927781  T      -1.56349033       0.07841038      -3.40348399       0.00544941      -0.00569990       0.01449150     -11.63649654
Ta       2.68567335       1.08617607      17.58684465  T      -1.12921726       1.50962822       4.68337304      -0.00248358      -0.01733777       0.03137970     -12.91168785
Ta       3.10928845       4.47929811      13.17848206  F       0.00000000       0.00000000       0.00000000       0.21673563       0.60283870       1.31107211     -11.05118561
Ta       7.99123353       5.76569259      18.23419620  T      -1.02726387       2.94908187       1.92823701       0.00186515       0.02273744      -0.01406407     -11.80924797
Ta       6.52406359       5.81355715      14.53246593  F       0.00000000       0.00000000       0.00000000      -0.01932847      -0.56490850      -1.81157756     -12.48239136
Ta      -3.10928845       6.95720768      14.53246593  F       0.00000000       0.00000000       0.00000000      -1.30582309      -0.33505037       0.35212216     -11.45126724
Ta      -2.86789275      10.53344005      17.01595557  T       3.12455413      -1.64544890       0.06850095      -0.01629323       0.00793153       0.01253790     -12.83946037
Ta       2.07218951       8.03434788      19.29637916  T      -2.01910709       0.20841350       0.81269706      -0.07124496      -0.05334949      -0.00014583     -11.92710781
Ta       7.02039301       9.38319862      17.69595033  T      -0.31198012      -0.15421025       4.14201112      -0.00477743      -0.00142887      -0.01222992     -12.17333221
Ta       3.46649025       7.95227750      15.53607419  T       2.03886234       1.10243132      -3.77650316       0.00704908       0.00022722       0.00585234     -12.89743423
Ta      -6.43895360       8.97437933      15.47199170  T      -0.13278459       0.48028767      -3.14818770       0.01521385       0.00378102       0.00457841     -11.64459991
Ta      -1.50874166       6.86393227      18.13802540  T       0.88197041      -0.65642430       0.19570951      -0.00416557      -0.01084509       0.01929152     -12.88717937
Ta      -1.09641480      10.19755077      13.68233585  F       0.00000000       0.00000000       0.00000000       0.21883187       0.59688866       1.30691576     -11.04484844
Ta       3.73989455      11.44394948      18.80779652  T      -0.71594008       4.08709211       3.87038529       0.00091970       0.02235234      -0.01552725     -12.20478535
Ru       9.94034527       1.06377566      16.32098986  T      -0.58203081      -0.56138794      -0.47078121       0.00234115       0.00732921      -0.01026917      -9.49218845
Ru       0.32761831       2.09177954      16.46972577  T      -1.58319558       0.25837361       0.98250748       0.01023807      -0.01963770      -0.00615693      -9.36285400
Ru       0.95038660       5.36219860      18.94034607  T      -0.45304992      -1.78384961      -1.07244057      -0.00509792       0.01163456      -0.03647593      -8.41914654
Ru       5.41565323       3.33552551      14.28071499  F       0.00000000       0.00000000       0.00000000      -0.66725993       0.88193893      -1.08046222      -8.13323784
Ru      10.43598652       4.47917604      12.07660198  F       0.00000000       0.00000000       0.00000000       0.77368391       0.62044889       0.83570564      -7.32353926
Ru      10.23236179       2.76397467      14.28036213  F       0.00000000       0.00000000       0.00000000       0.96859366       0.30201995       0.41279987      -9.34133053
Ru       0.59900963       3.90762520      14.28036213  F       0.00000000       0.00000000       0.00000000       0.31296933      -1.31259990       0.22381371      -8.22714424
Ru       5.14291376       1.70530851      16.43372039  T      -1.53473935       1.36023880       0.54017265      -0.00309694      -0.00570479       0.01078680      -9.49927711
Ru       5.67533944       4.81132959      19.02790156  T       0.42710330      -0.37389531      -1.12545995      -0.00206298       0.01121879       0.01342837      -7.72625875
Ru       0.00351637       0.50369835      18.91689477  T       0.24528888       2.31877501       0.95753110      -0.01333916      -0.01788743       0.02541541      -8.89202881
Ru      12.53231231       1.61251476      15.28361310  T       0.68926476      -0.09253783      -0.45785421       0.00653404       0.01394445       0.00294814      -9.40225220
Ru       2.99595755       2.60242690      15.14379319  T       1.00735231      -1.06058427      -1.72100892      -0.01104654      -0.00148804       0.01817591      -9.25385857
Ru       7.74006829       0.68115085      17.72842163  T       1.27898761      -0.07742622       2.32510182      -0.00857040       0.00596249       0.01438043      -8.66206360
Ru       7.92622137       3.90744233      13.17848206  F       0.00000000       0.00000000       0.00000000      -0.21076322       0.85523874       0.34470469      -7.69867563
Ru      -1.68014586       5.25843571      19.93381048  T       0.10704214       1.32555160      -2.40789527       0.01610494      -0.00066720       0.01327923      -8.03317356
Ru       8.42340183       1.23907673      12.92637920  F       0.00000000       0.00000000       0.00000000       0.22084090      -1.53635192       0.31995797      -7.49710083
Ru      -1.27371171       2.52615876      20.01471038  T       0.30281428      -0.30698352      -0.07274746      -0.00196874      -0.01820800      -0.00463802      -7.96555138
Ru       3.15036129      -0.04078826      14.89302572  T      -1.61464219       2.33533967      -2.28396543       0.00354911       0.01655136       0.00658303      -8.84032059
Ru       3.47866412       3.73378004      17.74566100  T      -1.44103817      -0.72556410       0.13168907       0.00587307       0.01219217       0.03851505      -9.04013062
Ru       8.88810227       4.73968224      15.71562809  T       0.43778697       1.13744598       0.06763834       0.01096865      -0.00962870      -0.02548492      -9.34828281
Ru       4.02630362       5.16010698      15.70217531  T      -0.35972829      -0.51940507       1.93428072       0.00618318      -0.00385518      -0.01088634      -9.37984657
Ru      13.24004555       0.66697699      12.92673206  F       0.00000000       0.00000000       0.00000000       0.07448721       0.18691735      -0.48638445      -8.51556396
Ru      -1.04203912       3.99184540      17.53923556  T      -0.96581822       0.11756360      -0.66155069       0.02784567       0.01324453      -0.00371304      -9.41368008
Ru       3.98070808       1.92123449      19.49716519  T       2.00515001       1.80922438      -3.94658211      -0.00050128       0.00647223       0.00690442      -7.85570765
Ru       8.63820006       3.21362277      17.89681496  T       0.55783525       1.75353713       1.14195167      -0.00668662      -0.00060329       0.03181296      -8.71536636
Ru       5.91283369       0.66715997      14.02861214  F       0.00000000       0.00000000       0.00000000      -0.41174087       0.19146430      -0.40388322      -8.47030544
Ru      10.82805838       1.77520366      18.70558532  T       1.54563474      -1.16731024      -4.95036810      -0.02227116      -0.00082955       0.01841199      -7.76662922
Ru      -3.33478904       5.18200351      16.91338019  T       0.02877066      -0.19839416       2.81367164       0.00377269       0.01110935      -0.00049463      -9.40485954
Ru       1.28495825       2.77211306      18.94151908  T       1.28735204       0.01811658       0.15530698      -0.00411686      -0.00397265      -0.00063352      -8.02693748
Ru       6.36923219       4.12556748      16.61283277  T      -1.13287656      -0.66656333      -1.73351971      -0.00792669      -0.00724174      -0.00224794      -9.42402744
Ru       5.70688034       6.82118531      16.81640320  T      -0.15610562       0.51655269       0.62471971      -0.00046617      -0.00642175       0.01106966      -9.45938015
Ru      -3.86938922       7.80622379      16.98208343  T       0.32445240       0.08543058      -1.20829052       0.00424579      -0.01646179       0.00615801      -9.35588551
Ru      -3.22100548      11.11414883      19.43251759  T       2.11086802       0.10147470      -2.36663468       0.00071815       0.00251230      -0.04885712      -8.38972664
Ru       1.20994973       9.05377865      14.78456879  F       0.00000000       0.00000000       0.00000000      -0.70343804       0.92389131      -1.10449982      -8.12792206
Ru       6.23028326      10.19742870      12.58045483  F       0.00000000       0.00000000       0.00000000       0.77907586       0.61927396       0.83557248      -7.31990910
Ru       6.02665806       8.48222733      14.78421593  F       0.00000000       0.00000000       0.00000000       0.88518369       0.32488015       0.31837398      -9.32382488
Ru      -3.60669374       9.62587833      14.78421593  F       0.00000000       0.00000000       0.00000000       0.29090786      -1.30637884       0.23233944      -8.22605133
Ru       0.92152465       7.42808680      16.93750946  T       1.19506819       1.73161973      -1.11667604      -0.00350179       0.00562055       0.00206260      -9.51665497
Ru       1.43607489      10.57646037      19.52449388  T       2.67749420      -2.75945565      -0.45603142      -0.00830460       0.00538808       0.01887888      -8.06130695
Ru      -4.18024238       6.21568290      19.37437597  T      -0.75769482      -1.07043449       0.00373286       0.00108230       0.00486460       0.03041951      -8.90489388
Ru       8.31610076       7.35579261      15.76973955  T       1.07724961       0.35770077       0.51343656       0.01046647       0.00597991      -0.00537112      -9.41080666
Ru      -1.21843828       8.32064503      15.64980245  T       0.34118431      -2.16929218      -1.46273678      -0.00887634      -0.00721666       0.02542578      -9.25507450
Ru       3.54600300       6.30682579      18.23504665  T      -1.43511265      -1.11299241       2.73219603       0.01853816       0.00169909       0.01619566      -8.66305447
Ru       3.72051811       9.62569523      13.68233585  F       0.00000000       0.00000000       0.00000000      -0.14664060       0.94444871       0.33532250      -7.73049068
Ru      -5.87344871      10.95624453      20.42775544  T      -1.88964516       0.39279729      -3.20417082      -0.00139856      -0.00786583       0.00584716      -8.05160809
Ru       4.21769905       6.95732975      13.43023300  F       0.00000000       0.00000000       0.00000000       0.22238463      -1.54762626       0.35336623      -7.49698496
Ru      -5.47276916       8.23088868      20.47835428  T       0.20259963      -0.05376489      -0.86940669       0.00238240      -0.01557152      -0.00042766      -7.90223742
Ru      -1.05171762       5.68189231      15.40566842  T      -1.79197918       0.29497149      -0.76095300       0.00674275       0.01949168       0.00744438      -8.84799099
Ru      -0.66697735       9.50214004      18.28770445  T      -0.37695471      -0.27032762       1.15727686      -0.00979677       0.01619524       0.03138496      -9.06845093
Ru       4.66719036      10.43689637      16.27742825  T       1.62042627       1.54680244       2.53634768       0.01533457      -0.00862380      -0.01737398      -9.35729027
Ru      -0.18064269      10.87595071      16.20524359  T       0.03656838      -2.23388075       1.09423727       0.00823981      -0.00139309      -0.01275237      -9.38645554
Ru       9.03434277       6.38522959      13.43058491  F       0.00000000       0.00000000       0.00000000       0.15266639       0.27496958      -0.58090943      -8.50470257
Ru      -5.23171664       9.71575214      18.03629316  T      -0.94196948      -0.18850205      -1.03244330       0.02874160       0.01167618       0.00383374      -9.40027046
Ru      -0.17796705       7.67158660      20.01926998  T       1.70259273       0.32732331      -5.46911631       0.04721224       0.00934079      -0.01842767      -7.89902973
Ru       4.47306829       8.86205593      18.45390197  T       2.95048434       0.38597957       5.00884334       0.01573583       0.00303161       0.00230071      -9.14316273
Ru       1.70713055       6.38541269      14.53246593  F       0.00000000       0.00000000       0.00000000      -0.42816213       0.15835279      -0.43626261      -8.48463726
Ru       6.66794947       7.47773280      19.22017178  T       2.94143442       0.07201797      -2.85482436      -0.04485315       0.00662171       0.01099950      -7.67301416
Ru      -7.56378978      10.89725755      17.41971783  T       0.38275146       0.00647489       0.54563826       0.00115211       0.01246009       0.00209515      -9.41746330
Ru      -2.90154209       8.51751029      19.46441168  T       1.85198229       0.46703450      -0.28267250      -0.00562343       0.01225990      -0.00972008      -8.07249832
Ru       2.15440469       9.84064676      17.15374533  T      -1.89158285      -1.45934182      -0.67344423      -0.00665434      -0.01602482      -0.01005404      -9.40770054
N        3.25379915       9.68083620      19.91419000  T      -3.19235225      -1.90912344       0.48392433      -0.02040512       0.05826457      -0.04516092      -9.35822201
H        3.58763860       9.63848760      20.89454966  T      -0.65783862      -0.44925309       0.11806760       0.03286085      -0.01311100       0.07379287      -3.87401533
