82
Lattice="14.653685569763184 -3.0000001167615996e-16 -2.204113721847534 -8.411406517028809 11.436505317687988 1.0077073574066162 -0.0 3.5000000656357872e-15 28.464778900146484" Properties=species:S:1:pos:R:3:move_mask:L:1:momenta:R:3:forces:R:3:energies:R:1 adsorbate_info="_JSON {\"site\": {\"coordinates\": [-2.3065092550000004, 6.861903427500001, 19.869611265], \"connectivity\": 4, \"topology\": [34, 59, 73, 78], \"n_vector\": [-0.4723015707526698, 0.18786773559653705, 0.8611834532702022], \"h_vector\": [0.40650502923758347, 0.9089559044151663, 0.09248148481376368], \"site_formula\": {\"Ru\": 4}}, \"smiles\": \"S1S\", \"mdf\": 1.9267422511746723, \"adsorbate_formula\": \"HN\"}" bond_change_count=0 energy=-773.62353515625 stress="0.0005440995446406305 -2.3025861537462333e-06 -9.053909889189526e-05 -2.3025861537462333e-06 0.0005844120169058442 -1.871833774202969e-05 -9.053909889189526e-05 -1.871833774202969e-05 9.465634502703324e-05" free_energy=-773.62353515625 pbc="T T F"
Ta      10.72976685       0.09530421      14.02861214  F       0.00000000       0.00000000       0.00000000       0.00481122      -0.61643302      -1.86343908     -12.47547340
Ta       1.09641480       1.23895478      14.02861214  F       0.00000000       0.00000000       0.00000000      -1.22477305      -0.32216188       0.33400738     -11.44385338
Ta       1.29770246       4.84840659      16.49973491  T      -0.69699477      -1.39755496      -0.15352680      -0.02817926      -0.01135617       0.05658731     -12.80491829
Ta       6.26706862       2.28087526      18.87585978  T      -3.77496858      -0.87383887      -0.26696349      -0.02979058      -0.00879010      -0.00762755     -11.47582626
Ta      11.24373379       3.66534656      17.21954646  T       1.24754922       0.04973204       5.18225377      -0.03280985       0.00927573      -0.02672815     -12.09200287
Ta       7.68269478       2.23286422      15.03772758  T       2.53209727       1.12934158      -1.00467195      -0.00630542       0.01044985      -0.00518072     -12.93083763
Ta      -2.24157310       3.23046593      14.95220455  T      -0.68654725      -2.62459799      -2.23299146       0.00601435       0.01023415      -0.01462060     -11.61820221
Ta       2.66410287       1.14041300      17.61106735  T      -0.99197837       1.32345461       6.19316073      -0.05962690      -0.03788455       0.03746521     -12.88793468
Ta       3.10928845       4.47929811      13.17848206  F       0.00000000       0.00000000       0.00000000       0.27870545       0.55166918       1.34096503     -11.03336430
Ta       7.99369338       5.77671046      18.24559038  T      -0.77406432       2.22902028       1.61560186       0.00011557       0.03304440      -0.03082800     -11.76441669
Ta       6.52406359       5.81355715      14.53246593  F       0.00000000       0.00000000       0.00000000       0.10176253      -0.62214196      -1.87746787     -12.47185898
Ta      -3.10928845       6.95720768      14.53246593  F       0.00000000       0.00000000       0.00000000      -1.35501957      -0.26969168       0.40014678     -11.44747162
Ta      -2.87689632      10.56933980      17.01208280  T      -2.47924804       3.04582129      -1.12710229       0.00828588      -0.03027141      -0.00409073     -12.81890869
Ta       2.00071791       8.04345667      19.35991311  T      -0.72289208       0.99555225      -0.29488297       0.04602602      -0.00125075      -0.02901707     -11.59292984
Ta       6.98460051       9.37405590      17.70531551  T       0.65175691       1.59177651       4.18894336      -0.00511467       0.02000000      -0.01708531     -12.16475964
Ta       3.46598214       7.93711475      15.54955427  T       1.57135464      -0.50743241      -1.67871840      -0.00449799      -0.02273004      -0.02665591     -12.92314625
Ta      -6.43964901       8.97195864      15.48439706  T       2.51374265       1.28583739      -3.43278990       0.01490593      -0.00767684      -0.01736146     -11.63256645
Ta      -1.62840380       6.75535768      18.01749337  T       0.92940404      -0.49009035       2.41498445      -0.04879732      -0.04049446      -0.05990672     -12.83247566
Ta      -1.09641480      10.19755077      13.68233585  F       0.00000000       0.00000000       0.00000000       0.26588610       0.62703675       1.33754849     -11.03912163
Ta       3.74295358      11.49629497      18.76681339  T      -0.10073661      -2.35172560       4.15535494      -0.04316837       0.01221997      -0.00618064     -11.78454590
Ru       9.90768353       1.08815134      16.28349022  T       0.41371942      -0.51952786      -0.55824661      -0.00608681       0.01106613       0.00335613      -9.47115803
Ru       0.32686188       2.08653071      16.46485128  T      -1.26201003      -0.76155186       2.09554627      -0.01144929      -0.01921861      -0.01507007      -9.36316013
Ru       1.04629603       5.47565751      18.93555704  T      -0.17653697      -1.45621864       0.27474103       0.01924636      -0.01255353      -0.06977959      -8.54533195
Ru       5.41565323       3.33552551      14.28071499  F       0.00000000       0.00000000       0.00000000      -0.75903809       0.94164073      -1.05918097      -8.13133144
Ru      10.43598652       4.47917604      12.07660198  F       0.00000000       0.00000000       0.00000000       0.80716664       0.61400139       0.73681718      -7.31514454
Ru      10.23236179       2.76397467      14.28036213  F       0.00000000       0.00000000       0.00000000       0.84197193       0.24883668       0.38531196      -9.32327271
Ru       0.59900963       3.90762520      14.28036213  F       0.00000000       0.00000000       0.00000000       0.32118312      -1.35823917       0.14984295      -8.23899269
Ru       5.12876503       1.72972827      16.43769827  T      -1.29008020       0.78624429      -1.09127669      -0.02138918      -0.01088793      -0.00304197      -9.47169685
Ru       5.69760569       4.75077859      19.04000571  T       2.11717583      -0.89066708       0.24193397       0.02892739      -0.00140512       0.01206993      -7.72012424
Ru      -0.00455008       0.50304471      18.87909982  T      -0.11073724       1.03772155       2.10826182       0.02438006      -0.02620419       0.04923521      -8.92572021
Ru      12.51928646       1.63898440      15.27633657  T      -0.09043715      -0.21605126      -1.81551418      -0.01125434      -0.01345476      -0.02015370      -9.40676212
Ru       2.98987911       2.60382891      15.15498714  T       1.21283357      -0.26565467      -1.07844704      -0.05303919      -0.02167010       0.03436603      -9.24575996
Ru       7.80569993       0.58278983      17.77879684  T       1.14932464      -1.07122535       0.79969247       0.00832838       0.01597150       0.03738000      -8.65091419
Ru       7.92622137       3.90744233      13.17848206  F       0.00000000       0.00000000       0.00000000      -0.17402993       0.95089507       0.40113527      -7.73709154
Ru      -1.51317768       5.12767772      19.94956483  T      -1.58692406       2.73617212      -1.82732848       0.00721186      -0.00100142       0.00751604      -8.45996094
Ru       8.42340183       1.23907673      12.92637920  F       0.00000000       0.00000000       0.00000000       0.19023223      -1.61721885       0.44955549      -7.51558542
Ru      -1.31692020       2.44382049      20.04974096  T      -1.40872736      -0.67358978      -0.45953671      -0.01549911      -0.04076338       0.03631102      -7.99923468
Ru       3.14605427      -0.05166465      14.90329208  T      -1.65356300       0.46714113      -0.84760399      -0.01180285       0.05033306       0.02267275      -8.86004639
Ru       3.43176092       3.85001791      17.83031877  T       0.58452824      -0.57495224      -0.32293441       0.01378397       0.00143766       0.07621357      -8.98112583
Ru       8.88752656       4.73966755      15.77378672  T      -0.31572654       0.36822553      -0.27911393       0.02422043      -0.01915050      -0.00118387      -9.34033012
Ru       4.00065417       5.14915321      15.72061270  T       1.26027131       0.08492554       0.04637964      -0.01447144       0.00434241      -0.03844854      -9.35837173
Ru      13.24004555       0.66697699      12.92673206  F       0.00000000       0.00000000       0.00000000       0.10091326       0.18204162      -0.55941874      -8.53665161
Ru      -1.03831056       3.99512806      17.52807348  T      -0.67189183       1.50505189      -2.50223650       0.01973273      -0.01684853      -0.01800030      -9.37991333
Ru       3.96023174       1.96689168      19.48886843  T      -0.48782261      -0.05770163      -4.23472578       0.04005682       0.02244173       0.00223351      -7.95004654
Ru       8.57662467       3.16089650      17.89548901  T      -0.17571175      -0.60032040       0.06257327      -0.00131286       0.00815317       0.04715705      -8.71908379
Ru       5.91283369       0.66715997      14.02861214  F       0.00000000       0.00000000       0.00000000      -0.40696684       0.27652374      -0.42807168      -8.51009274
Ru      10.75746754       1.76194619      18.70265560  T       1.74842249      -0.54585309      -4.08157489      -0.00605309       0.00391894       0.00440162      -7.68102598
Ru      -3.38163016       5.15561774      16.90948364  T      -0.40522080       0.54416290      -0.78911226       0.01927428       0.02751363      -0.01594526      -9.41124630
Ru       1.20858175       2.83795184      18.92100809  T      -0.27868856       1.09142499       2.68855181       0.01675114       0.00786975      -0.03408058      -8.01327133
Ru       6.35229165       4.13403250      16.61791300  T       0.08784291       0.62227484      -0.63022079       0.02168616      -0.01505072      -0.01729038      -9.38052845
Ru       5.69624116       6.80661060      16.77546969  T      -1.66306141       0.70893703      -0.90248183       0.01886797      -0.00194447       0.00514579      -9.46471500
Ru      -3.88856732       7.81415842      16.99409351  T      -0.42026214      -0.30244995       1.11372493       0.06919015      -0.00694134      -0.02071512      -9.38799191
Ru      -3.22639296      11.17118880      19.44227449  T      -0.59151368      -0.66717073      -1.15010468      -0.01778984       0.01940858      -0.05952448      -8.41875553
Ru       1.20994973       9.05377865      14.78456879  F       0.00000000       0.00000000       0.00000000      -0.75698400       0.85721999      -1.05380464      -8.13755703
Ru       6.23028326      10.19742870      12.58045483  F       0.00000000       0.00000000       0.00000000       0.78180528       0.63215315       0.84448141      -7.31828976
Ru       6.02665806       8.48222733      14.78421593  F       0.00000000       0.00000000       0.00000000       0.94993448       0.30694029       0.36296988      -9.32568550
Ru      -3.60669374       9.62587833      14.78421593  F       0.00000000       0.00000000       0.00000000       0.28716207      -1.31829691       0.24357754      -8.21006680
Ru       0.88444937       7.42638419      16.96428105  T      -0.48779610       0.03850716       0.21492979       0.01596768       0.01117640      -0.01527860      -9.48412228
Ru       1.47220473      10.48703864      19.54343089  T       0.44518358      -3.48490001      -0.57888576       0.02900589       0.04451692       0.02407244      -7.75974035
Ru      -4.00883539       6.23249455      19.42876572  T      -0.51668451      -1.61428432       0.91133928       0.02400059       0.08495644       0.00380361      -9.33201599
Ru       8.35175840       7.33293656      15.80750999  T      -0.01962217      -1.39791773       0.09857511       0.00357403       0.00165304      -0.00166833      -9.38013935
Ru      -1.22408984       8.32411772      15.65484916  T       1.19307356      -1.92480197      -0.17231320      -0.02035521      -0.01427923       0.01495425      -9.25488758
Ru       3.64611603       6.38293206      18.35505731  T      -1.37479822       2.23836389       0.67770496      -0.01885250       0.05449094       0.02914351      -8.62533569
Ru       3.72051811       9.62569523      13.68233585  F       0.00000000       0.00000000       0.00000000      -0.17907763       0.84486443       0.36878473      -7.68217611
Ru      -5.90794422      10.97592961      20.41798130  T      -0.94154528      -0.69035396      -2.22553056       0.02191854      -0.00643022      -0.03550977      -8.00108528
Ru       4.21769905       6.95732975      13.43023300  F       0.00000000       0.00000000       0.00000000       0.20496991      -1.56935883       0.47822866      -7.50288725
Ru      -5.56120146       8.22587314      20.47936242  T       0.60949022      -0.70059735      -0.13728108       0.02204561       0.00411861      -0.01301324      -7.93558455
Ru      -1.07147348       5.65822116      15.37929079  T      -0.39332960      -1.25209282      -2.30530626      -0.00478550       0.04017601      -0.00840967      -8.83385277
Ru      -0.74440844       9.42404212      18.28425247  T       0.35973621      -1.23267992      -1.37342793      -0.03233279       0.05032130       0.02195519      -9.07643700
Ru       4.65692992      10.45300569      16.23613144  T       2.37481492      -0.85625197       0.56100214       0.03034505      -0.02062010      -0.04353920      -9.36133194
Ru      -0.20361344      10.86351952      16.23268595  T       0.79358991      -3.82006692       0.46712462       0.02457175      -0.00186163      -0.05529831      -9.36697006
Ru       9.03434277       6.38522959      13.43058491  F       0.00000000       0.00000000       0.00000000       0.04725772       0.21925284      -0.48589975      -8.49161816
Ru      -5.23386931       9.70444082      18.07036373  T      -0.80119237      -0.36670918      -0.80555147       0.01648367       0.05209193       0.00248325      -9.37952995
Ru      -0.38583988       7.53779945      19.98038679  T      -3.11145617      -2.25327719      -5.28955123       0.00585899      -0.01473930       0.06732360      -7.79545069
Ru       4.39450585       8.95429156      18.43698962  T       0.93425160      -0.55421221       0.88826837      -0.00779189      -0.00935183       0.04783594      -8.75510120
Ru       1.70713055       6.38541269      14.53246593  F       0.00000000       0.00000000       0.00000000      -0.47053200       0.31820938      -0.42715335      -8.54532051
Ru       6.55365531       7.45352098      19.19548745  T       1.47603183       0.14677743      -3.45305791       0.00432700      -0.02705304      -0.00971580      -7.68701172
Ru      -7.55051655      10.88945439      17.42516765  T       0.28363908       2.16495495      -1.06247578       0.00122139       0.02379811       0.00723657      -9.41772461
Ru      -2.93863285       8.54377957      19.46236137  T       2.57829136       0.26398857       0.49602363      -0.00807956      -0.02731836      -0.00370517      -8.32493877
Ru       2.13496637       9.82295121      17.11540276  T       1.07343328      -2.03688857      -1.20607433       0.03847285       0.01051656       0.02317451      -9.40845203
N       -2.29122733       6.93683600      20.58145247  T       1.44320190      -1.71407161      -2.26209021       0.03560622      -0.03501956      -0.01252681      -9.30477619
H       -2.45919296       7.00590289      21.59058086  T       0.25962693      -0.03838238       0.39951009      -0.01710988       0.00098263       0.00415275      -3.77570009
