77
Lattice="11.60444164276123 0.0 6.999999919513338e-16 -2.799999967805335e-15 9.899094581604004 3.73103928565979 0.0 0.0 33.57935333251953" Properties=species:S:1:pos:R:3:move_mask:L:1:momenta:R:3:forces:R:3:energies:R:1 adsorbate_info="_JSON {\"site\": {\"coordinates\": [2.9309692133448205e-08, 3.16346845, 22.386235235], \"connectivity\": 4, \"topology\": [4, 16, 22, 45], \"n_vector\": [-4.0869190140191895e-08, -0.22793902635703844, 0.9736754080613331], \"h_vector\": [-1.0, 0.0, 0.0], \"site_formula\": {\"Hf\": 2, \"Sc\": 1, \"Si\": 1}}, \"smiles\": \"S1S\", \"mdf\": 1.206658001889299, \"adsorbate_formula\": \"H3NO\"}" bond_change_count=1 energy=-549.3145751953125 stress="0.0002227539662271738 -5.565386345551815e-06 8.396751582040451e-06 -5.565386345551815e-06 0.00026770716067403555 3.797128738369793e-05 8.396751582040451e-06 3.797128738369793e-05 8.677061850903556e-05" free_energy=-549.3145751953125 pbc="T T F"
Hf       1.93407357       3.56009269      15.85691643  F       0.00000000       0.00000000       0.00000000       0.03276611       0.05294415       0.43087089     -10.30185986
Hf      -0.00000000       8.50963974      15.85691643  F       0.00000000       0.00000000       0.00000000      -0.02101554       0.32232329       0.01627991      -9.61217880
Hf       1.94048909       3.60487205      19.54765996  T      -3.23889432      -0.86581346       0.58297332      -0.00412239      -0.02531685      -0.01316591     -10.37110138
Hf       0.00531547       8.56881060      19.52636443  T       1.67602431       1.46589945      -0.41400154      -0.00757978       0.03228842       0.01233735     -10.38983727
Hf       1.82518905       3.77103375      23.22767337  T       1.97990922      -0.03804624      -2.70391191      -0.06773466       0.01676407       0.00725295     -10.25760937
Hf      -0.01498294       8.52188557      23.21961354  T       0.67163602      -2.42132546      -1.91980994       0.01216745      -0.01199707       0.00590011     -10.15220451
Hf       5.80222082       3.56009269      15.85691643  F       0.00000000       0.00000000       0.00000000      -0.00890607       0.04205009       0.40246531     -10.30023956
Hf       3.86814713       8.50963974      15.85691643  F       0.00000000       0.00000000       0.00000000       0.02409119       0.31922811       0.00113297      -9.61289978
Hf       5.81524757       3.58313318      19.58184732  T      -1.03638410       3.39269065      -0.52139264       0.01118146       0.01258981      -0.01024301     -10.38427925
Hf       3.86348941       8.55891591      19.53736666  T       0.43561743      -0.09098361       0.43951289       0.03382098       0.02396318      -0.00892119     -10.37523460
Hf       5.80684375       3.76250440      23.11571704  T       0.54781663       3.47694957      -3.48907002      -0.01155212      -0.02258112       0.02667445      -9.14553833
Hf       3.87367811       8.48698951      23.24295436  T      -2.15061754       2.84501754      -1.68187008      -0.03844762       0.01438019      -0.00244480     -10.14773560
Hf       9.67036819       3.56009269      15.85691643  F       0.00000000       0.00000000       0.00000000      -0.01177533       0.05535173       0.42615095     -10.30416489
Hf       7.73629427       8.50963974      15.85691643  F       0.00000000       0.00000000       0.00000000      -0.01784278       0.31999826       0.00003892      -9.61266422
Hf       9.66738052       3.60067278      19.53577291  T       0.43292868      -1.41937500       0.66437775       0.00509350      -0.01615253      -0.00441772     -10.37548065
Hf       7.73625741       8.55352952      19.54171592  T      -1.43218991      -1.07148465      -0.78982769      -0.01208671       0.01892364      -0.05119164     -10.37418365
Hf       9.83301614       3.77059480      23.30245658  T      -1.27413215       1.92426253      -2.35980859      -0.02139056      -0.01220483      -0.03564093     -10.26567650
Hf       7.75103935       8.48048566      23.22113712  T      -2.23380790       1.55031992      -2.32177985      -0.00338360      -0.01214111       0.00391071     -10.16639233
Sc      -0.00000000       1.40585887      13.99139690  F       0.00000000       0.00000000       0.00000000       0.00017566       0.18996924       0.22620967      -7.20290565
Sc       1.93407357       6.35540581      13.99139690  F       0.00000000       0.00000000       0.00000000       0.00137947      -0.62382782       0.67333841      -6.27133608
Sc       0.00783208       1.41439505      17.68092195  T      -0.46075382      -0.41880615      -1.10342597       0.00719635      -0.00213327      -0.00780383      -7.20849466
Sc       1.94168729       6.37008245      17.65637796  T      -0.16357672       0.01664151      -1.02329309      -0.00707460       0.00162433      -0.01320663      -7.17379618
Sc       0.03833006       1.41483170      21.45398923  T      -0.28649482      -1.18496725       0.42789950       0.03550562      -0.04802367       0.04837455      -6.91180229
Sc       1.96043000       6.38259404      21.32308952  T       0.72659367      -1.06022629      -1.09837939      -0.00865517       0.00167271      -0.00327101      -7.21669531
Sc       3.86814713       1.40585887      13.99139690  F       0.00000000       0.00000000       0.00000000       0.00389521       0.17645270       0.23123690      -7.20215845
Sc       5.80222082       6.35540581      13.99139690  F       0.00000000       0.00000000       0.00000000       0.00037774      -0.62485790       0.67111731      -6.26901150
Sc       3.85433416       1.40092159      17.69552594  T      -1.42239414      -0.21519590       0.83675576       0.03060686       0.00799304      -0.02445939      -7.21207762
Sc       5.80854555       6.36384818      17.66088453  T       0.18989733      -0.49398688      -0.74410671      -0.01007987      -0.00262131       0.00787474      -7.17885780
Sc       3.94743075       1.42886904      21.39991825  T       1.46203173       0.30181568       0.72154014      -0.01567147      -0.01137948       0.00559500      -6.82765293
Sc       5.81490261       6.39535541      21.33495446  T       0.05167572       0.06081126      -0.73129744      -0.00114464       0.01058827      -0.00324256      -7.21925879
Sc       7.73629427       1.40585887      13.99139690  F       0.00000000       0.00000000       0.00000000      -0.00622212       0.17842332       0.23295139      -7.20543385
Sc       9.67036819       6.35540581      13.99139690  F       0.00000000       0.00000000       0.00000000      -0.00096882      -0.62457287       0.67309618      -6.27077103
Sc       7.73972652       1.40713680      17.67529020  T       0.22941128       0.24954458      -0.43931853       0.00056005      -0.00832257      -0.03154133      -7.19449186
Sc       9.66431492       6.37017528      17.65730172  T       1.43044990      -0.60242269      -1.19193795       0.00878917       0.00562127      -0.01992653      -7.17607260
Sc       7.71694783       1.40207565      21.43434484  T       0.20384572       0.77183841      -0.15309703      -0.01937446       0.00095126       0.00504938      -6.85042000
Sc       9.65484545       6.36564123      21.33201764  T      -0.36995784       0.12382747      -0.68025596       0.02454144       0.02491766      -0.00677888      -7.21758270
Si       1.93407357       0.80531353      12.12587738  F       0.00000000       0.00000000       0.00000000       0.00256323      -1.00022411      -0.03980669      -4.51887941
Si      -0.00000000       4.12782955      13.99139690  F       0.00000000       0.00000000       0.00000000       0.00096023       0.97618270      -0.23510711      -5.09003544
Si      -0.00000000       5.75486040      15.85691643  F       0.00000000       0.00000000       0.00000000       0.00078576       0.07924252      -0.60909832      -6.48823261
Si       1.93530508       9.09978791      17.65390461  T      -0.01009390       0.29798513      -0.51790427       0.00957953       0.00308675       0.00928872      -6.68032265
Si       1.93407357       0.80531353      15.85691643  F       0.00000000       0.00000000       0.00000000       0.01687297      -0.02046283      -0.31674993      -6.42734575
Si       0.00196363       4.15042427      17.69375482  T      -0.26882729      -0.17160590      -0.09166790       0.00847211      -0.01289351       0.03484926      -6.58582973
Si       0.00176259       5.81031431      19.49937380  T       0.43351913      -0.38580261      -0.18842116       0.00207449      -0.04784270       0.01545382      -6.45890474
Si       1.93631985       9.10118025      21.41974713  T      -0.31271231       0.21632886      -0.55188031      -0.00021955       0.04022080      -0.01491674      -6.55433273
Si       1.93114481       0.85051909      19.56801912  T       0.22705602      -0.20851908       0.79305016       0.00657927      -0.01725351      -0.00791947      -6.48559618
Si      -0.00364309       4.22075417      21.33005082  T       0.02900358       0.17637664       0.60117271       0.01433354       0.05955024      -0.02314132      -6.39725113
Si       0.01787564       5.79143958      23.20072974  T       0.08765989       0.18743564      -0.53450038       0.01092796       0.04133928      -0.05500275      -5.39422035
Si       1.91388812       9.19311598      25.10850147  T      -0.06943614       1.01181531      -0.35109689       0.02574518       0.01302429      -0.02534428      -4.43758821
Si       5.80222082       0.80531353      12.12587738  F       0.00000000       0.00000000       0.00000000       0.00050356      -1.02632761      -0.00874618      -4.51749039
Si       3.86814713       4.12782955      13.99139690  F       0.00000000       0.00000000       0.00000000       0.00160659       0.97779047      -0.23342067      -5.09100723
Si       3.86814713       5.75486040      15.85691643  F       0.00000000       0.00000000       0.00000000       0.02992491       0.02623425      -0.57596850      -6.48696470
Si       5.80242202       9.09832702      17.66216238  T       0.20455086       0.61162723      -0.82319550      -0.00441538       0.00401051      -0.02476031      -6.68172932
Si       5.80222082       0.80531353      15.85691643  F       0.00000000       0.00000000       0.00000000      -0.03731859      -0.02579989      -0.30694330      -6.42328835
Si       3.87602776       4.13277562      17.70571251  T      -0.18460694      -0.22436355      -0.02090253       0.02684375       0.01286741      -0.03628480      -6.58573723
Si       3.87687267       5.78044985      19.50390639  T       0.05291904      -0.26916101      -0.59982583       0.01085704       0.01530397       0.01869431      -6.45735359
Si       5.80332862       9.10438375      21.41423720  T       0.17877169       0.39578840      -0.15985770      -0.02168193      -0.01401193       0.01257604      -6.55778503
Si       5.81575506       0.84881321      19.51488637  T       0.26974172      -0.62762506       0.25091155       0.01257223      -0.02112211       0.00220647      -6.52958918
Si       3.86419837       4.17063934      21.38661945  T       0.23613339       0.03536942       0.76131969      -0.02690401      -0.00976265      -0.03724615      -6.56115437
Si       3.89155745       5.68577524      23.26254456  T       0.33049292      -1.88162387       0.85127860      -0.01590961       0.05997833       0.00963360      -5.21953964
Si       5.81762480       9.23694553      25.06479480  T      -0.19326616       1.49843381      -0.17183296       0.00855888       0.01207578       0.00258270      -4.65088558
Si       9.67036819       0.80531353      12.12587738  F       0.00000000       0.00000000       0.00000000      -0.00407396      -1.01214862      -0.02583829      -4.51870728
Si       7.73629427       4.12782955      13.99139690  F       0.00000000       0.00000000       0.00000000      -0.00199106       0.97781169      -0.23419282      -5.09085560
Si       7.73629427       5.75486040      15.85691643  F       0.00000000       0.00000000       0.00000000      -0.00972129       0.03848793      -0.59843981      -6.48670483
Si       9.66385823       9.10180874      17.65974051  T       0.27556144       0.06349455      -0.69950337       0.03922341      -0.00730636      -0.01983615      -6.67883778
Si       9.67036819       0.80531353      15.85691643  F       0.00000000       0.00000000       0.00000000       0.01515639      -0.01691201      -0.35029995      -6.42617893
Si       7.73015923       4.13500918      17.70099546  T      -0.18766497       0.62251454       0.16201478       0.00248465       0.02436162      -0.03512422      -6.58462572
Si       7.74215396       5.77102160      19.51223514  T       0.23725399      -0.11499925      -0.20240781      -0.01820200       0.01751627       0.00884972      -6.45759964
Si       9.67438860       9.09428710      21.40060145  T      -0.05170810      -0.22382290      -0.26505404      -0.02450364       0.02855777       0.01459359      -6.55632067
Si       9.66613882       0.85949329      19.51568597  T      -0.50687621      -0.61001928      -0.34524453      -0.00081887      -0.02786849       0.00265783      -6.51009035
Si       7.77715178       4.14957577      21.41341146  T      -0.38192601       0.30228453       0.64558363       0.02180417      -0.00319412      -0.04953891      -6.54673052
Si       7.73688237       5.67118426      23.27610674  T      -1.30232038      -1.61573809       0.96645197       0.01711078       0.05000618       0.01255164      -5.22119236
Si       9.67097868       9.26363258      25.06598433  T       0.30800036       1.91483662      -0.97628674      -0.03074121       0.01055276      -0.00361288      -4.62740898
N        0.03979857       4.21297789      24.15070913  T       0.52701046      -1.23395350      -0.30146556       0.05886050      -0.03195041      -0.01645575      -8.17468262
O       -0.96174591       2.84093094      26.77072680  T      -0.40508544       1.03916876       4.81292471      -0.01762855      -0.03977367      -0.03896521      -7.35628510
H        1.24568878       0.24735383      22.48257016  T       0.77241267      -2.37267936      -0.53209549       0.00071829       0.03193271       0.00015058      -4.01930523
H       -0.73705463       3.67103587      27.22641598  T      -2.12061100      -0.66264274       0.37664193      -0.04183024       0.00860348      -0.06369863      -3.40488291
H       -0.12430623       2.56108035      26.36295744  T      -0.15062747       0.15498468       0.02634950      -0.02627939       0.04323095      -0.02923186      -3.41538882
