77
Lattice="11.60444164276123 0.0 6.999999919513338e-16 -2.799999967805335e-15 9.899094581604004 3.73103928565979 0.0 0.0 33.57935333251953" Properties=species:S:1:pos:R:3:move_mask:L:1:momenta:R:3:forces:R:3:energies:R:1 adsorbate_info="_JSON {\"site\": {\"coordinates\": [7.73629427, 1.40585887, 21.45347595], \"connectivity\": 1, \"topology\": [34], \"n_vector\": [-0.10366760042460367, -0.3133081139227932, 0.943976193752971], \"h_vector\": [1.0, 0.0, 0.0], \"site_formula\": {\"Sc\": 1}}, \"smiles\": \"Cl\", \"mdf\": 1.7392171104391192, \"adsorbate_formula\": \"H3NO\"}" bond_change_count=3 energy=-119522712.0 stress="1959.514404296875 -1432.7900390625 129.35049438476562 -1432.7900390625 933.589111328125 -206.5208282470703 129.35049438476562 -206.5208282470703 1038.4346923828125" free_energy=-119522712.0 pbc="T T F"
Hf       1.93407357       3.56009269      15.85691643  F       0.00000000       0.00000000       0.00000000    -822.19744873    -492.58282471    -446.32061768      -6.49758196
Hf      -0.00000000       8.50963974      15.85691643  F       0.00000000       0.00000000       0.00000000      -5.24601746      81.17238617      39.32369614      29.29082108
Hf      -4.17208836       5.56523755      20.07634613  T       0.21402597      -0.13252703      -0.95853807 -634816.93750000  394546.03125000 -1030308.93750000     421.61611938
Hf      -4.48577917       5.19831604      21.39318593  T       0.93246137       3.64093619       0.49920528 -693584.25000000  276219.25000000 -804200.75000000    1046.38635254
Hf      -5.90486385       9.54985450      16.62291059  T       1.45151248       2.58029576      -3.05316681     123.52027893    -407.14038086     328.64062500       5.39907646
Hf      -1.95376323      13.29133479      26.70329744  T      -1.54482871      -3.89005444      -1.33133923 -631395776.00000000 290457760.00000000 256972192.00000000 -147137488.00000000
Hf       5.80222082       3.56009269      15.85691643  F       0.00000000       0.00000000       0.00000000    3437.87939453     308.88397217    4851.10644531     -12.14847565
Hf       3.86814713       8.50963974      15.85691643  F       0.00000000       0.00000000       0.00000000     -10.89611149      39.18296814      44.48278809      -4.87867641
Hf       9.86015054       4.20499784      20.64938857  T      -0.66929619      -0.54341503       1.44291446 1288058.00000000  298814.50000000 -6483936.00000000  -26862.44531250
Hf       3.32022534       4.17260088      17.45936842  T       1.02798933       0.41216704      -1.11368616   -1658.42004395   -4219.80273438    8360.69335938      20.51115799
Hf       9.58946426       3.33800405      21.91936974  T      -2.06405385       0.41968593      -1.86656674 108002424.00000000 -114235064.00000000 129287248.00000000 -1433008.25000000
Hf       0.65806039       0.10227978      16.81285535  T      -0.67987316       0.99881398      -0.69675177   -5157.62890625    5409.94677734    6127.57910156      -5.67161655
Hf       9.67036819       3.56009269      15.85691643  F       0.00000000       0.00000000       0.00000000   -3842.11499023   -1761.65112305    -925.44323730      -7.29915714
Hf       7.73629427       8.50963974      15.85691643  F       0.00000000       0.00000000       0.00000000      55.28662872   -1308.12072754    1574.31750488      -7.99675941
Hf       9.76982356       3.11954020      22.73591382  T      -1.03865060       1.50134195      -2.20754147 156931296.00000000 100727056.00000000 -188680000.00000000 -999964.81250000
Hf       9.65436343      10.24872579      18.32878937  T      -1.35723380      -0.86268366      -3.03528480    -800.60644531    -688.20239258    1149.66308594      82.31596375
Hf      12.29343848       1.55633499      21.78900552  T       0.93293396       2.78256517      -2.45805471 -4297138.50000000 1992153.37500000 -709689.75000000     257.32708740
Hf       9.82500041      13.36990720      24.05253103  T       1.97825682      -1.65771321      -1.14691456 3049350.00000000 -1431120.00000000 -13617967.00000000   78820.47656250
Sc      -0.00000000       1.40585887      13.99139690  F       0.00000000       0.00000000       0.00000000     256.13812256     320.79083252    -748.06628418     107.26307678
Sc       1.93407357       6.35540581      13.99139690  F       0.00000000       0.00000000       0.00000000      -8.01525307     -27.27092743      55.82729340      -7.53823280
Sc      -1.44058479       2.94477837      22.71921032  T       0.45449533      -0.48963812       1.10055735 -286448704.00000000 95089312.00000000 -16268324.00000000 11039403.00000000
Sc      -6.14915071       8.50394039      22.85202928  T       0.53554128       0.20774336      -0.56535906    3147.41137695   -5418.08398438   -2060.40991211      -3.75819063
Sc       1.08213837       1.60892263      12.29790293  T       1.30128864      -0.29761004       0.08055866     -63.52285767     111.83963776      -0.46068192       5.84174109
Sc      -1.18723805      11.73177592      20.83106646  T      -0.42130621       0.12056732       0.11100200   -8259.49316406   13226.76953125   67434.59375000       0.93489981
Sc       3.86814713       1.40585887      13.99139690  F       0.00000000       0.00000000       0.00000000     -32.28154373      -4.66303349     -11.40248871      -5.94846916
Sc       5.80222082       6.35540581      13.99139690  F       0.00000000       0.00000000       0.00000000     -11.85735321     -31.73562431      30.76921082      -5.38393259
Sc       1.22198434      -3.72676842      17.11489117  T      -0.54361838      -0.39126613       0.01191899 -160572.53125000 -355507.78125000  -47888.79296875      10.37828445
Sc       3.34396822       6.93972113      17.16308686  T       0.18270267       0.57703504       0.71305566     705.94274902    -157.38731384      33.37826538      -5.22723722
Sc      14.99611611       4.78177545      16.56086302  T      -1.17286902       0.22755879      -0.60573016  -12604.22851562    4004.88476562    6728.82324219    3144.56665039
Sc      14.87263678       3.59947777      18.97870758  T       0.56179073       0.07646449      -1.02412421    2717.76757812    -701.55389404    -959.99511719      -4.10270882
Sc       7.73629427       1.40585887      13.99139690  F       0.00000000       0.00000000       0.00000000      18.87179565     227.23919678     629.87573242      -5.71228552
Sc       9.67036819       6.35540581      13.99139690  F       0.00000000       0.00000000       0.00000000       6.43371296      -9.24164295      32.94572449      -5.72246742
Sc       5.65999792       3.48448047      22.67631003  T       0.47778234      -0.31441752      -0.61117126 -2004409.00000000   47516.55078125  -75318.12500000     -75.28891754
Sc       8.28631534       9.56203603       9.71994876  T       0.57353022      -0.12938995      -0.29259495       0.01964995      -0.06067777       0.06033907      -2.12969017
Sc      10.23634910      -8.45488239      21.22760057  T      -0.16017017      -0.96763110      -3.90916526 1626573.00000000 -2545113.25000000 2964425.75000000   38920.71093750
Sc      10.70079367       9.83724844      21.98374292  T      -0.10449234      -0.44389023       0.56645884   -3865.51342773   66664.10156250   49574.08203125       1.76094866
Si       1.93407357       0.80531353      12.12587738  F       0.00000000       0.00000000       0.00000000      43.39310455     -50.42694855      26.49399185       5.33598471
Si      -0.00000000       4.12782955      13.99139690  F       0.00000000       0.00000000       0.00000000     132.48840332    -123.51994324     -10.11492348      -0.11721992
Si      -0.00000000       5.75486040      15.85691643  F       0.00000000       0.00000000       0.00000000     209.01728821     616.03106689   -1399.37768555      -5.02486992
Si       0.57444353       8.37868896      13.58941016  T      -0.34718254       0.08936167      -1.18761853       0.19523185     -12.16392136      12.80416107      -3.86911941
Si       1.93407357       0.80531353      15.85691643  F       0.00000000       0.00000000       0.00000000    -112.67626953    -130.87507629    -441.83953857      -2.53006649
Si      -2.83406259       3.44769648      19.86190262  T      -0.42872947       0.27545380      -0.09622870  869674.06250000 -3399598.00000000 -3417802.25000000   -5318.21582031
Si       0.49599832       7.39480612      15.77280515  T       0.09126177       0.20708935      -0.03835914      92.08888245    -258.22644043      69.10053253      18.28417778
Si       4.97477787      11.44616065      22.38096215  T      -0.35082755      -0.42651994      -0.40128004    2687.97094727   -2209.60058594    -595.34582520      -6.95186806
Si      -3.25549484       2.00060041      18.62771538  T      -0.30466005      -0.72582490       0.02522379  438690.43750000  437425.18750000  776386.50000000    -198.71578979
Si      -0.64410141       3.37541679      25.18778931  T       0.62249466      -0.61840001       0.80285573 -3910453.50000000  835892.87500000 -817337.68750000  -10857.55175781
Si      -3.34430719       5.21226716      19.63876702  T       0.41261909      -2.07476525       1.03514989  363682.34375000 -402687.68750000 -584271.37500000      32.67314148
Si       0.04367150      10.55290103      22.34702039  T       0.66986609       1.04642641      -0.40008904 -106105.19531250  151721.65625000  192785.37500000       9.29277611
Si       5.80222082       0.80531353      12.12587738  F       0.00000000       0.00000000       0.00000000       6.27086926      79.31810760     -57.54901886       6.57493734
Si       3.86814713       4.12782955      13.99139690  F       0.00000000       0.00000000       0.00000000     -70.52253723      61.89657211      -0.71772766      -4.53509378
Si       3.86814713       5.75486040      15.85691643  F       0.00000000       0.00000000       0.00000000    3123.69628906    9208.03808594   -5291.89941406      26.76125336
Si      10.78853447      10.17110944      18.11241020  T      -0.34373974       0.76013274      -0.96754494    -263.39367676   -1063.09204102     645.76892090      25.05867004
Si       5.80222082       0.80531353      15.85691643  F       0.00000000       0.00000000       0.00000000     604.15582275     312.98657227    1185.36596680      -5.30704975
Si       8.05681174       5.02278424      12.58293466  T       0.13937301      -0.08164052       0.11096440       4.38738203       8.71677303     -24.98580170      -1.62843704
Si       7.76310424       2.43737413      19.17363323  T      -0.04780892      -0.08669222       0.18883428 1038777.62500000  418825.93750000 1375836.75000000     237.32273865
Si      13.00876583      10.24926224      12.69236494  T       0.14254545       0.51516146      -0.19103272      -1.35421503      -0.27094883      -2.62990713      -2.83973837
Si       4.26470761       4.11126625      22.91365045  T      -0.01814683      -0.50154326       0.00692595  -68858.62500000    9404.60253906    6067.23583984       3.15287733
Si       2.83414661       6.53622606      27.98429036  T      -0.20808918      -0.31492966       0.80022184      89.01052856      77.11518860    -115.79485321      -1.03350067
Si       1.21262074       4.71359821      23.95916670  T       0.02215732      -2.41484040       0.05968811  850964.43750000  340147.15625000 -290860.78125000    -253.72607422
Si       6.12451812      11.54659583      28.96929696  T       0.12604059       0.89836206      -0.15140947 -333940.71875000 -239446.07812500  183688.56250000      13.30628204
Si       9.67036819       0.80531353      12.12587738  F       0.00000000       0.00000000       0.00000000      35.62354279     -12.57481956      22.36331940      -5.31910419
Si       7.73629427       4.12782955      13.99139690  F       0.00000000       0.00000000       0.00000000      11.16121769    -177.75689697     507.03738403      -3.86202788
Si       7.73629427       5.75486040      15.85691643  F       0.00000000       0.00000000       0.00000000    -611.90435791     497.00555420    4560.24853516      -5.49749804
Si      12.13123589      12.70814792      17.33463489  T       0.45433574       0.32727213      -0.99834509     141.08682251     477.66787720     -37.76788330      11.02556801
Si       9.67036819       0.80531353      15.85691643  F       0.00000000       0.00000000       0.00000000    1445.05346680    1415.74011230    5845.34521484      17.45416451
Si       8.14790054       4.08970524      21.05264296  T      -0.50363710      -0.07779433      -0.45301295 -541025.81250000   87695.12500000 8408960.00000000  -72109.73437500
Si      15.97110195       4.24458029      16.13127353  T       0.34807165       0.24405607      -0.27179599   14570.63574219   -7312.67822266   -9257.68652344      57.61914062
Si      11.88104608      11.36385530      18.73352062  T       0.19470386      -0.06423085       0.00074123    -406.51849365     278.77056885    1603.53222656      21.09472847
Si      10.94909754       1.82277133      18.92036698  T       0.45817958      -0.32917851       0.27241010 -350926.50000000  518774.25000000 1217774.12500000   -1552.03405762
Si       8.66643971       3.46818088      20.49042963  T       0.50665076      -0.43969649       0.51151658 -2755195.00000000 -3743024.00000000 -1456388.75000000  200009.59375000
Si       6.80373415       6.78998692      22.17853102  T       0.27462182      -2.20158128       1.08062414 -436126.65625000  592149.00000000 -108052.28906250    -231.79435730
Si       9.15474401      11.22784975      24.42706444  T       0.15474282       1.03244687       0.08204419 3851446.50000000 3832872.50000000 3215408.75000000   -4320.79003906
N        8.72376936       3.08363735      23.96493181  T      -2.01472262       1.92467428       6.31117154 6587667.00000000 -49119132.00000000 -25291366.00000000 -610498.00000000
O        9.55746612       3.50757656      23.10278393  T       0.42887806       2.88253412      -0.36248507 642259328.00000000 -295173088.00000000 -154722496.00000000 19451872.00000000
H        9.64214751       3.65681276      21.63751979  T       0.01523920      -0.14488788       0.70733150 7045450.00000000 -25919700.00000000 9642870.00000000  -34630.80078125
H        7.23818564       3.91040767      26.21414324  T      -0.09283978       0.34921725       0.20724366  -27460.48242188    2330.50927734   38884.83593750      52.30157471
H        9.14885471       0.34119757      24.94356808  T       0.04420154      -0.31187191      -0.42776096  -33209.49218750  -24073.82421875  -15483.00488281     161.29928589
