77
Lattice="11.60444164276123 0.0 6.999999919513338e-16 -2.799999967805335e-15 9.899094581604004 3.73103928565979 0.0 0.0 33.57935333251953" Properties=species:S:1:pos:R:3:move_mask:L:1:momenta:R:3:forces:R:3:energies:R:1 adsorbate_info="_JSON {\"site\": {\"coordinates\": [3.8681471733333326, 4.291681926666667, 23.318994520000004], \"connectivity\": 3, \"topology\": [4, 10, 58], \"n_vector\": [0.19518288602158035, -0.28240812435158774, 0.9392280299823387], \"h_vector\": [0.6611436785614268, -0.7502593127034576, 0.0], \"site_formula\": {\"Hf\": 2, \"Si\": 1}}, \"smiles\": \"S1S\", \"mdf\": 1.6434192604844198, \"adsorbate_formula\": \"H3NO\"}" bond_change_count=0 energy=-547.8779296875 stress="0.00024531313101761043 4.022657407176666e-08 -7.172600362537196e-07 4.022657407176666e-08 0.00028867018409073353 4.1520819650031626e-05 -7.172600362537196e-07 4.1520819650031626e-05 5.030344254919328e-05" free_energy=-547.8779296875 pbc="T T F"
Hf       1.93407357       3.56009269      15.85691643  F       0.00000000       0.00000000       0.00000000      -0.05612798       0.05469137       0.41418266     -10.30969429
Hf      -0.00000000       8.50963974      15.85691643  F       0.00000000       0.00000000       0.00000000      -0.02542788       0.32020032      -0.01138082      -9.61651993
Hf       1.91969328       3.58649846      19.49811734  T       0.17852604       0.96533328       2.33788714       0.03025637       0.01069209       0.00341741     -10.36991501
Hf      -0.01204347       8.55377292      19.53057801  T       2.81766513      -0.24841466       1.51343986       0.00383609      -0.01527017      -0.02552648     -10.37382698
Hf       2.21959892       3.67963827      23.19083053  T       2.69946405       5.62894184       1.99223508       0.00334966       0.01385862      -0.01794893     -10.13627243
Hf       0.01616668       8.44260307      23.21212079  T      -0.43047555      -1.41619412      -4.09679216       0.00278363       0.01847023       0.01979998     -10.15755844
Hf       5.80222082       3.56009269      15.85691643  F       0.00000000       0.00000000       0.00000000       0.05838532       0.05484191       0.42578793     -10.30916405
Hf       3.86814713       8.50963974      15.85691643  F       0.00000000       0.00000000       0.00000000      -0.00109746       0.33012366       0.01580182      -9.61114025
Hf       5.81411456       3.59409249      19.49291036  T       2.19422474      -0.13990284       1.71374995       0.00511584       0.00001812      -0.01741501     -10.35431862
Hf       3.87131365       8.58315376      19.52033737  T      -1.54955780       0.20550541      -0.15794715      -0.00873500      -0.00493948       0.01688740     -10.41204643
Hf       5.50605093       3.64950342      23.25075756  T       0.85511472       1.89327800       3.72256482       0.01312733       0.00238562      -0.05356455     -11.36243153
Hf       3.86875458       8.53730392      23.19403536  T      -0.66635762      -1.78239372      -2.46515039      -0.00223835       0.04479542       0.03531618     -10.21340942
Hf       9.67036819       3.56009269      15.85691643  F       0.00000000       0.00000000       0.00000000      -0.01078788       0.02616337       0.30706316     -10.29616833
Hf       7.73629427       8.50963974      15.85691643  F       0.00000000       0.00000000       0.00000000       0.02144295       0.32077202      -0.02703795      -9.61885738
Hf       9.67154667       3.56568824      19.60704845  T      -0.87269564      -1.68091997      -1.59792250      -0.01513424      -0.00650099      -0.01100041     -10.39247704
Hf       7.74470413       8.54933940      19.53194801  T       0.35216943       0.53189371       0.01463450      -0.01008284       0.00652315      -0.00611547     -10.38469982
Hf       9.69112412       3.73312713      23.07917816  T       1.65477893       2.85121677      -0.29755295       0.01392569       0.00114493      -0.02097610      -8.98670483
Hf       7.72245773       8.45717753      23.21832877  T       1.13355283      -1.97756044       1.64072866      -0.00958131       0.01405063       0.01924854     -10.15672588
Sc      -0.00000000       1.40585887      13.99139690  F       0.00000000       0.00000000       0.00000000      -0.01262325       0.17746642       0.23031683      -7.20647764
Sc       1.93407357       6.35540581      13.99139690  F       0.00000000       0.00000000       0.00000000      -0.00254369      -0.62490654       0.67614156      -6.27346134
Sc      -0.01136386       1.39840279      17.67009236  T       0.69161828       0.75634331      -1.52703134       0.00684401       0.00664918      -0.00126154      -7.19686651
Sc       1.91216782       6.37619532      17.64822631  T       0.50110868      -0.72481114      -2.10965984       0.00597156      -0.00345470      -0.02507469      -7.16543293
Sc      -0.02486459       1.37621755      21.42767576  T       0.13931354      -0.16461052       0.94804299       0.00071061      -0.00599910       0.02490212      -6.85492325
Sc       1.88476110       6.37640540      21.27902839  T       0.21220600       0.28483160      -0.95071431       0.01426871      -0.00264788      -0.00869776      -7.25392914
Sc       3.86814713       1.40585887      13.99139690  F       0.00000000       0.00000000       0.00000000       0.00192638       0.20445490       0.22167203      -7.20454407
Sc       5.80222082       6.35540581      13.99139690  F       0.00000000       0.00000000       0.00000000       0.00159081      -0.62518799       0.67553860      -6.27439976
Sc       3.87045582       1.41604015      17.66691847  T      -0.77733554       0.35306542      -0.76742094      -0.00583218      -0.00289349       0.00775461      -7.18686295
Sc       5.82655416       6.37646147      17.64428492  T       0.14719811      -0.02475906      -1.24545294      -0.00706145      -0.00645097      -0.00917161      -7.16200829
Sc       3.85790519       1.50494994      21.45187851  T      -0.70080122      -0.53437530       0.87248220      -0.00153337       0.01022441      -0.02273914      -6.90839815
Sc       5.82417266       6.34545116      21.33942022  T       0.87899177      -0.49483539      -0.19519095      -0.00953428      -0.00015485      -0.00043784      -7.30029058
Sc       7.73629427       1.40585887      13.99139690  F       0.00000000       0.00000000       0.00000000       0.00936247       0.17636803       0.23212403      -7.20660067
Sc       9.67036819       6.35540581      13.99139690  F       0.00000000       0.00000000       0.00000000       0.00032655      -0.62676853       0.66392374      -6.27074909
Sc       7.74478251       1.39702744      17.66731029  T       0.90141365       0.19945158      -0.15503876      -0.00055802       0.02168101       0.02006024      -7.19573307
Sc       9.66451241       6.35952142      17.66335133  T       0.42401067       0.10440428      -0.55896545      -0.00526507       0.00624482      -0.00868321      -7.17876291
Sc       7.76884876       1.37742395      21.42565444  T       0.33583971      -0.45146198       1.88637997       0.00616783      -0.01216001       0.03511630      -6.84460545
Sc       9.67086706       6.36167465      21.36269701  T      -0.57182323       0.41433809      -1.16197642       0.01583640       0.00908324       0.00391629      -7.20560455
Si       1.93407357       0.80531353      12.12587738  F       0.00000000       0.00000000       0.00000000      -0.00474362      -1.00083518      -0.03983974      -4.51913166
Si      -0.00000000       4.12782955      13.99139690  F       0.00000000       0.00000000       0.00000000      -0.00342166       0.98301792      -0.23975858      -5.08859110
Si      -0.00000000       5.75486040      15.85691643  F       0.00000000       0.00000000       0.00000000      -0.06850471       0.04095988      -0.62754673      -6.48528671
Si       1.92899458       9.10353263      17.65705018  T      -0.09721654      -0.19779063      -0.87075187       0.00331056       0.00375490      -0.01370150      -6.67986202
Si       1.93407357       0.80531353      15.85691643  F       0.00000000       0.00000000       0.00000000      -0.05244999       0.00183976      -0.38973042      -6.42901325
Si      -0.02471925       4.13301954      17.69400960  T      -0.10804605      -0.15025242      -0.09163185       0.00896842      -0.01202920       0.00358700      -6.58425617
Si      -0.02304481       5.76117023      19.50425631  T      -0.07878098       0.01596597      -0.62029863       0.01586219       0.00790970      -0.00362496      -6.45358944
Si       1.92730088       9.09726797      21.39508716  T      -0.30908532       0.64299159       0.00917562      -0.00195046       0.00477190      -0.00449938      -6.56032419
Si       1.91557086       0.84495694      19.50594284  T       0.10543388      -0.57076099       0.94385339      -0.00590642       0.00110424       0.00304328      -6.51524878
Si       0.07375044       4.11346838      21.39619543  T      -1.02141562      -0.00294356       0.98085888      -0.00178517       0.02780035       0.04519786      -6.56182766
Si       0.06565387       5.60563926      23.26575522  T      -0.55788718      -2.23947264       0.96629049       0.00550330      -0.00403540      -0.02702725      -5.18134212
Si       1.93670214       9.24535039      25.05833179  T       0.41705737       0.77788035       0.29585709       0.00465799       0.00595391      -0.00366394      -4.64913416
Si       5.80222082       0.80531353      12.12587738  F       0.00000000       0.00000000       0.00000000       0.00558551      -0.99788105      -0.04235834      -4.51898193
Si       3.86814713       4.12782955      13.99139690  F       0.00000000       0.00000000       0.00000000      -0.00043328       0.98059279      -0.23478791      -5.08857632
Si       3.86814713       5.75486040      15.85691643  F       0.00000000       0.00000000       0.00000000      -0.00204089       0.10392354      -0.64058459      -6.48454475
Si       5.80811747       9.10331079      17.65563705  T       0.14985511       0.61125080      -0.29882767      -0.00487100       0.00680880      -0.00856465      -6.67643642
Si       5.80222082       0.80531353      15.85691643  F       0.00000000       0.00000000       0.00000000       0.05471274      -0.02605002      -0.38174179      -6.42792320
Si       3.86686926       4.15410458      17.68336219  T      -0.24104555       0.44253444       0.40750964       0.00509981       0.00983246      -0.03166164      -6.58755684
Si       3.87442228       5.84379361      19.45278907  T       0.28878740       0.08830299      -0.15392534       0.00976637       0.02064178      -0.03115647      -6.43563652
Si       5.80859223       9.08468511      21.39765809  T      -0.62647974      -0.43078719      -0.49354705       0.02187297       0.00127974      -0.00519065      -6.56013298
Si       5.82041867       0.84679054      19.50614889  T       0.08703669      -1.08659748      -0.16435135       0.01667454      -0.01092707       0.00474389      -6.51135778
Si       3.86629901       4.29921087      21.24093636  T       0.10736020       0.76175180       0.60068899      -0.01407371      -0.01846066       0.05618784      -6.41160583
Si       3.81490395       5.83837569      23.12175195  T       0.34147944      -0.44013102      -0.55503649       0.01243991      -0.03622600       0.01642632      -4.86956692
Si       5.79632928       9.24545328      25.06116918  T      -0.12452592       0.58291766      -0.22606530      -0.00088590       0.01325583      -0.00801679      -4.63979340
Si       9.67036819       0.80531353      12.12587738  F       0.00000000       0.00000000       0.00000000      -0.00087532      -1.01327729      -0.02576414      -4.51648045
Si       7.73629427       4.12782955      13.99139690  F       0.00000000       0.00000000       0.00000000       0.00340404       0.98276317      -0.24224807      -5.08921194
Si       7.73629427       5.75486040      15.85691643  F       0.00000000       0.00000000       0.00000000       0.06267688       0.03418114      -0.64535034      -6.48715591
Si       9.66860850       9.09833021      17.65612385  T       0.53430301       0.24721458      -0.82502340       0.00651099       0.00426825      -0.01662135      -6.67984390
Si       9.67036819       0.80531353      15.85691643  F       0.00000000       0.00000000       0.00000000      -0.00473928      -0.09333008      -0.37336087      -6.41971636
Si       7.76023279       4.13622767      17.69681249  T      -0.40830858       0.47634020      -0.11505420      -0.00621278      -0.00856140       0.01864643      -6.58766556
Si       7.74265439       5.76524731      19.52384431  T      -0.36827002      -0.00652046      -0.13120825      -0.01991272      -0.02323998      -0.01921747      -6.45381784
Si       9.66905076       9.08026765      21.41612129  T      -0.05507184       0.57997978       0.00005972       0.00391929       0.00350504      -0.00525999      -6.56044054
Si       9.67015287       0.82695852      19.51575310  T      -0.18828753      -0.50898395       0.44125337      -0.00988675       0.01328240      -0.00662201      -6.52400017
Si       7.67218821       4.11719131      21.41761382  T       0.81094363      -0.48574606       0.68586859      -0.02004188       0.02231641       0.00137541      -6.55076790
Si       7.69818820       5.61313799      23.28692506  T      -0.40759682      -1.69248145       0.62618666      -0.02980918       0.00220856      -0.01106888      -5.17951775
Si       9.67539121       9.20055717      25.04580268  T      -0.08775064       1.12690998      -0.00206785      -0.00997894       0.00422099       0.00982602      -4.65870953
N        3.75165334       4.33334418      24.47283032  T      -2.64253040       0.09406958      -0.39298027       0.03727214       0.03377724       0.04803413      -8.78267574
O        5.05286331       4.29692633      25.06392911  T       1.36373502      -1.17213755      -1.64509505      -0.01617500      -0.02712548       0.04196239      -5.26526928
H        3.83250040       2.46281821      23.15534846  T      -0.38091908      -0.08953901       0.01121158      -0.00389306       0.03357188       0.00235625      -3.99171090
H        3.14965196       4.40803055      25.31024847  T       0.73521919      -0.62094542      -0.15310456      -0.00436145       0.04199746       0.03724642      -3.31644511
H        5.66136058       5.03701211      24.57389022  T      -0.06783413       0.06532923      -0.26648410      -0.02234854      -0.01113099       0.00839452      -2.94364643
