77
Lattice="11.60444164276123 0.0 6.999999919513338e-16 -2.799999967805335e-15 9.899094581604004 3.73103928565979 0.0 0.0 33.57935333251953" Properties=species:S:1:pos:R:3:move_mask:L:1:momenta:R:3:forces:R:3:energies:R:1 adsorbate_info="_JSON {\"site\": {\"coordinates\": [5.80222082, 3.56009269, 23.31899452], \"connectivity\": 1, \"topology\": [10], \"n_vector\": [-0.1277492053821044, -0.14775258265712496, 0.9807391675886052], \"h_vector\": [1.0, 0.0, 0.0], \"site_formula\": {\"Hf\": 1}}, \"smiles\": \"Cl\", \"mdf\": 1.7392171104391174, \"adsorbate_formula\": \"H3NO\"}" bond_change_count=0 energy=-547.61328125 stress="0.0002203478798037395 4.743551016872516e-06 -6.640825631620828e-06 4.743551016872516e-06 0.0002558611740823835 6.66885607643053e-05 -6.640825631620828e-06 6.66885607643053e-05 6.444281461881474e-05" free_energy=-547.61328125 pbc="T T F"
Hf       1.93407357       3.56009269      15.85691643  F       0.00000000       0.00000000       0.00000000      -0.01775406       0.07219854       0.40718329     -10.29825497
Hf      -0.00000000       8.50963974      15.85691643  F       0.00000000       0.00000000       0.00000000      -0.00712307       0.33372885      -0.01638100      -9.61615276
Hf       1.91696284       3.60730702      19.54435746  T       1.33667671      -1.13886239      -1.81182989       0.03381499      -0.00861114      -0.01099706     -10.38848209
Hf      -0.00168000       8.58133759      19.52926824  T      -1.37098599       0.53814168       1.28316711       0.00572180      -0.02994026      -0.00685729     -10.38080311
Hf       1.94619009       3.81197973      23.09525381  T       0.69538537       2.32376184      -3.75263744       0.00454443      -0.03161941       0.00823951      -9.13735199
Hf      -0.01421082       8.51302619      23.24149363  T       2.51553429       0.72456935      -0.89484266       0.00844528      -0.00163937       0.00277216     -10.16711998
Hf       5.80222082       3.56009269      15.85691643  F       0.00000000       0.00000000       0.00000000      -0.00824810       0.08961365       0.40548867     -10.29531384
Hf       3.86814713       8.50963974      15.85691643  F       0.00000000       0.00000000       0.00000000      -0.00241109       0.33246583      -0.02195749      -9.61530399
Hf       5.80584823       3.62032124      19.55714169  T       0.24986868      -1.03900278      -1.66822704       0.00284594       0.00247523      -0.01599289     -10.40310097
Hf       3.86257527       8.58406885      19.53429071  T      -0.26665017      -0.50052929      -2.72185255      -0.00555474      -0.02758709      -0.01676401     -10.38471508
Hf       5.80874587       3.81881614      23.12243580  T      -1.53590670      -1.43442448      -7.39338595      -0.00237983      -0.04818618       0.00653195      -9.85771942
Hf       3.86414261       8.52076895      23.23169318  T      -0.14183359       0.08004272      -0.38309106      -0.00786967       0.00473484      -0.01016266     -10.17612457
Hf       9.67036819       3.56009269      15.85691643  F       0.00000000       0.00000000       0.00000000      -0.03316547       0.07820055       0.39142162     -10.29813576
Hf       7.73629427       8.50963974      15.85691643  F       0.00000000       0.00000000       0.00000000      -0.00742917       0.33282346      -0.02748773      -9.61657143
Hf       9.65745410       3.61559350      19.54854040  T      -0.92272258       1.92732900       0.44226189      -0.00471288       0.00215700       0.00158125     -10.37955761
Hf       7.73375123       8.58214111      19.53283790  T       1.08638044       1.21262027       0.44832177       0.00505821      -0.02327910       0.00997062     -10.39765739
Hf       9.57800106       3.76048234      23.18891927  T      -3.46898136       4.16562798      -0.79277836       0.05092049      -0.02522743      -0.00258100     -10.41517067
Hf       7.73178576       8.55779062      23.21418929  T      -1.43304898      -1.20800898      -2.71348302       0.00041366      -0.03447479      -0.00380399     -10.21169186
Sc      -0.00000000       1.40585887      13.99139690  F       0.00000000       0.00000000       0.00000000      -0.00098232       0.20395333       0.22220185      -7.20669317
Sc       1.93407357       6.35540581      13.99139690  F       0.00000000       0.00000000       0.00000000      -0.00116001      -0.62604856       0.67229438      -6.27329254
Sc      -0.00170897       1.41954974      17.67539205  T       0.65096187       0.59325933       0.37506420       0.00237002       0.01463601      -0.00117147      -7.19990349
Sc       1.92884397       6.37885430      17.64848990  T       0.19858454       0.02200935       0.21658521      -0.00161498      -0.00174142      -0.00266383      -7.16760683
Sc       0.00056893       1.45383415      21.41475788  T      -0.12888152       0.10378650       0.54863991       0.00574748      -0.00491129       0.00883108      -6.80811119
Sc       1.91284660       6.43157128      21.30517381  T       0.10246396       0.94691256      -0.54454758       0.00820053      -0.01172915       0.03004216      -7.21818733
Sc       3.86814713       1.40585887      13.99139690  F       0.00000000       0.00000000       0.00000000      -0.00161573       0.20514053       0.22385865      -7.20613146
Sc       5.80222082       6.35540581      13.99139690  F       0.00000000       0.00000000       0.00000000      -0.00083281      -0.62666798       0.67162305      -6.27207994
Sc       3.86296352       1.42215240      17.67560007  T       0.16497573       0.54591734       0.48478149      -0.00263006       0.02296254      -0.01021082      -7.20196915
Sc       5.80314815       6.38116624      17.65287007  T       0.45086470      -0.85373151      -0.90177243      -0.00395241      -0.01158951      -0.00441325      -7.17378569
Sc       3.87749840       1.46627392      21.42929117  T       0.52748600       0.42580265       0.04247182      -0.00783294      -0.00345159       0.02091163      -6.84761906
Sc       5.78240422       6.41739726      21.31922602  T      -0.15975184      -0.99490617      -0.45519132       0.02122356      -0.00213411       0.02668723      -7.26198864
Sc       7.73629427       1.40585887      13.99139690  F       0.00000000       0.00000000       0.00000000      -0.00116779       0.20746809       0.22344096      -7.20702076
Sc       9.67036819       6.35540581      13.99139690  F       0.00000000       0.00000000       0.00000000      -0.00017065      -0.62545848       0.67116570      -6.27415180
Sc       7.73401683       1.43080496      17.66635758  T       1.25068637      -0.27134026      -0.65276856       0.00582886       0.00446746       0.00822408      -7.19040442
Sc       9.66301643       6.37992868      17.64674563  T      -0.45080327       0.18216377      -0.79596180       0.01812973      -0.00718586       0.01927791      -7.17044830
Sc       7.72411568       1.50795985      21.42061460  T      -0.00373049      -0.50845860       1.26547099       0.00498805      -0.00452867       0.01792249      -6.79111195
Sc       9.68430433       6.41793348      21.32420712  T       0.62622334      -0.98365208       0.38907146       0.00602936      -0.02828330       0.00113285      -7.24904156
Si       1.93407357       0.80531353      12.12587738  F       0.00000000       0.00000000       0.00000000       0.00068562      -0.98606241      -0.05364633      -4.51963711
Si      -0.00000000       4.12782955      13.99139690  F       0.00000000       0.00000000       0.00000000      -0.00124539       0.97847974      -0.23558727      -5.08978748
Si      -0.00000000       5.75486040      15.85691643  F       0.00000000       0.00000000       0.00000000      -0.01739192       0.06709123      -0.65041256      -6.48720121
Si       1.93435895       9.10564107      17.65386737  T      -0.48598715      -0.00057294      -0.69326095      -0.00867586      -0.00426874       0.00057058      -6.67870855
Si       1.93407357       0.80531353      15.85691643  F       0.00000000       0.00000000       0.00000000      -0.01663588       0.05952097      -0.35886586      -6.42878675
Si      -0.00998852       4.14929329      17.69258084  T      -0.02924988       0.32436147       0.15390431       0.01990439      -0.00083067       0.00417612      -6.58764267
Si      -0.01020323       5.80797305      19.48797836  T       0.28112137       0.08767962       0.22384856      -0.00738811      -0.00851536       0.00597841      -6.45070744
Si       1.92425364       9.12441726      21.42178831  T       0.40560402       0.76691970      -0.01521808       0.00866633       0.02062132      -0.01556413      -6.54864883
Si       1.92880019       0.87139009      19.52544186  T       0.84864331      -0.45732461       0.74523316       0.00981155       0.01416662      -0.00107966      -6.53254318
Si       0.00208360       4.20332565      21.36418024  T      -0.00290516       0.16767488       1.13832130      -0.03032506       0.02398166       0.02946825      -6.54816771
Si      -0.00728038       5.71720564      23.26328440  T       0.50928507      -1.93904119       1.21757190       0.00408535      -0.01850447      -0.00805700      -5.17702484
Si       1.93231248       9.28165501      25.08538150  T      -0.14988488       0.90554599       0.12853967      -0.00262806       0.02940810      -0.00533469      -4.63864136
Si       5.80222082       0.80531353      12.12587738  F       0.00000000       0.00000000       0.00000000      -0.00073062      -0.98536551      -0.05411965      -4.51926756
Si       3.86814713       4.12782955      13.99139690  F       0.00000000       0.00000000       0.00000000       0.00073109       0.97808719      -0.23453012      -5.09054089
Si       3.86814713       5.75486040      15.85691643  F       0.00000000       0.00000000       0.00000000       0.00119978       0.07517513      -0.63833892      -6.48774624
Si       5.80179289       9.10589089      17.65358622  T      -0.00025569      -0.62907315      -0.55838322      -0.01341882      -0.00741162       0.01795304      -6.67649460
Si       5.80222082       0.80531353      15.85691643  F       0.00000000       0.00000000       0.00000000      -0.03356818       0.07010972      -0.38516769      -6.42869949
Si       3.86498818       4.15614289      17.69564087  T      -0.08194742       0.73193624      -0.00512651       0.01069962      -0.03583336       0.02577025      -6.58602810
Si       3.85805709       5.81688664      19.48837583  T       0.04029539      -0.19337232       0.31983556       0.01089390      -0.02138969       0.00950101      -6.45204115
Si       5.79365978       9.12322013      21.41168451  T       0.18943340       0.45309781       0.14584850       0.00655765      -0.00235746       0.00032919      -6.55319357
Si       5.80143904       0.88520470      19.51395935  T       0.64148695      -0.09385990       0.09595997       0.00652273      -0.00455611       0.02308382      -6.53264427
Si       3.84714289       4.21307066      21.33965081  T      -0.53183874       0.56946189       0.95810008      -0.01550537       0.01831878      -0.02924861      -6.56619883
Si       3.84409007       5.74292165      23.22690525  T       0.16946084      -1.56655863       0.93973332       0.01461840       0.01700954       0.02102389      -5.19002771
Si       5.80403807       9.29093649      25.07241534  T       0.58775670       0.47776579      -0.86595406       0.01766855      -0.00774732       0.01417625      -4.64187574
Si       9.67036819       0.80531353      12.12587738  F       0.00000000       0.00000000       0.00000000      -0.00031136      -0.98760378      -0.05152535      -4.51946354
Si       7.73629427       4.12782955      13.99139690  F       0.00000000       0.00000000       0.00000000      -0.00338502       0.97840565      -0.23681687      -5.09110785
Si       7.73629427       5.75486040      15.85691643  F       0.00000000       0.00000000       0.00000000      -0.01748388       0.07546159      -0.65375066      -6.48916817
Si       9.66813493       9.10550624      17.65419050  T       0.37266035       0.10576676      -1.00030176       0.00867472      -0.00214129       0.00175525      -6.67711449
Si       9.67036819       0.80531353      15.85691643  F       0.00000000       0.00000000       0.00000000       0.00847570       0.06174090      -0.38676894      -6.42888451
Si       7.73262378       4.15991141      17.69892719  T      -0.13910018       0.59916605       0.31919585      -0.00000791      -0.00647370      -0.01898062      -6.59189463
Si       7.73552757       5.81401640      19.50877441  T       0.19960624       0.00916268       0.17101892       0.00310164       0.00813980      -0.01475579      -6.46808624
Si       9.67070815       9.12179532      21.41146697  T      -0.48571557      -0.02348063      -0.12619625       0.00397814       0.00671047       0.00566384      -6.55336952
Si       9.66366085       0.88262778      19.51518940  T       0.48952619      -0.66600569       0.14728111      -0.00581498       0.00130010       0.01812309      -6.52923775
Si       7.72962187       4.22551369      21.39666539  T      -0.04329502      -0.29516556       2.01240312      -0.01535582      -0.02010294      -0.02817837      -6.41886330
Si       7.76318702       5.78031425      23.19044006  T       0.51131801      -1.46832784      -0.78008829      -0.02672771       0.03802465      -0.00472708      -5.19319963
Si       9.65063686       9.29938591      25.07854509  T       0.42466892       0.78863055      -0.28958202       0.00687558      -0.00488299       0.00759429      -4.64172077
N        6.96797591       4.16493965      24.98541643  T       2.22623662       0.87446443       5.00196481      -0.01223058       0.01014080       0.05589907      -9.60108566
O        8.18982067       3.69922516      24.62753182  T       0.89371689       2.04219334      -0.69178815       0.05664575       0.01797573      -0.07743061      -5.73839426
H        7.08910775       5.13164760      25.35117116  T       0.51675731      -0.11590547       0.76229603      -0.03136668      -0.07851446      -0.00809747      -3.21740317
H        6.66051441       3.53205604      25.75295658  T       0.55719724      -0.08261919       0.38915227       0.01521781      -0.06007400       0.00986275      -3.22148252
H        8.46240419       2.98448410      25.31341818  T      -0.33508334      -0.36006718      -0.19436970      -0.02049187      -0.02996486       0.00069690      -3.06222987
