121
Lattice="11.32190990447998 -0.0 -6.999999919513338e-16 -3.700000002833815e-15 23.034778594970703 -5.66095495223999 -0.0 4.2000001634662394e-15 33.96573257446289" Properties=species:S:1:pos:R:3:move_mask:L:1:momenta:R:3:forces:R:3:energies:R:1 adsorbate_info="_JSON {\"site\": {\"coordinates\": [1.36668432, 7.22817707, 19.45034218], \"connectivity\": 1, \"topology\": [51], \"n_vector\": [0.017120652066659456, 0.16864679399110394, 0.9855278495046877], \"h_vector\": [1.0, 0.0, 0.0], \"site_formula\": {\"Se\": 1}}, \"smiles\": \"Cl\", \"mdf\": 1.7127647297895967, \"adsorbate_formula\": \"C2H6O\"}" bond_change_count=0 energy=-609.7138061523438 stress="0.00019925349624827504 -3.322506927361246e-06 -1.2132198207837064e-05 -3.322506927361246e-06 5.603308090940118e-05 -3.432237008382799e-06 -1.2132198207837064e-05 -3.432237008382799e-06 8.403341780649498e-05" free_energy=-609.7138061523438 pbc="T T F"
Cu       0.01617526      20.08661249      15.16393555  T       0.35372216       0.04430985       1.76934424       0.01759477       0.01795727      -0.00676732      -3.91881514
Cu      -0.12063918       8.73349922      15.21533753  T       0.40860536       0.69289385      -0.21812102       0.01912950       0.01763693      -0.01438610      -4.22531509
Cu       2.83809059      20.18224349      12.40275585  T       0.58702404       0.51485210       1.37379053       0.00356672      -0.00319848       0.01022790      -4.19436932
Cu       2.72059459       8.82200108      18.08555140  T       0.53892148       0.22956759      -0.25636099       0.01417658       0.03381440      -0.00770653      -4.19301891
Cu       2.46451470      13.42137264      17.65562423  T      -1.09295893      -2.13694941      -1.19818819      -0.00727460      -0.05323549       0.00194898      -3.42141366
Cu       2.91119567       3.22062332      18.39449034  T      -1.04001974       1.63813913      -0.68011349      -0.03579834      -0.04088552       0.00677678      -4.20931911
Cu       0.04522459      14.45923237      15.14827696  T      -1.44361834       0.43889113      -0.45775278      -0.00136769       0.00579835       0.00035807      -4.19901371
Cu      -0.51538291       2.78729327      20.65022810  T      -0.24712077      -1.68972907       0.05108116       0.07660055      -0.03984279      -0.01584500      -3.56474185
Cu       0.00000000      20.17817879       9.59222507  F       0.00000000       0.00000000       0.00000000      -0.00129144      -0.00141287       0.14861725      -4.23365498
Cu       0.00000000       8.66078949       9.59222507  F       0.00000000       0.00000000       0.00000000      -0.00807032      -0.00614517       0.65597874      -2.35178995
Cu       2.83047748      20.17817879       6.76174784  F       0.00000000       0.00000000       0.00000000      -0.00437900       0.00317819       0.62825173      -3.45671892
Cu       2.79325030       8.63091444      12.41812550  T       1.18213508      -0.48539976       0.36782094       0.02089499      -0.00264080      -0.00094867      -4.23351574
Cu       2.90780609      14.51810754      12.33337806  T       0.10242304      -0.30660282       0.03375188      -0.00227334       0.00597905      -0.02473224      -4.20821762
Cu       2.36580048       3.47543090      12.91244388  T      -3.14688710       0.35935313       0.89469984       0.01075290      -0.01243498       0.03397924      -3.74580598
Cu       0.00000000      14.41948509       9.59222507  F       0.00000000       0.00000000       0.00000000       0.01532032       0.28612182       0.14013353      -3.67927599
Cu      -0.06742994       3.05339062      15.52572787  T       0.74434654       0.32737133       0.36052332       0.00559372      -0.00057626       0.00337102      -4.22124767
Cu       5.66127648      20.17519465      15.16088498  T      -0.27875893      -0.80195333       1.74080062      -0.00439919      -0.01007366       0.00559738      -3.90838885
Cu       5.54720610       8.71993084      15.21855092  T       0.97712302      -0.25156127       0.67106951      -0.00640794      -0.00335622       0.00442204      -4.21213150
Cu       8.49967000      20.18239471      12.41181366  T       0.41490204      -0.11385739      -0.17684226       0.00170266       0.00292553       0.00321101      -4.18121862
Cu       8.37950239       8.90815778      18.06490294  T       0.09254987       0.83882174      -0.39516155       0.01891198      -0.00549162      -0.01210057      -4.19947529
Cu       8.19151420      13.45325932      17.66247093  T      -0.76324098      -2.52902574       0.95695769      -0.03976077      -0.03515421       0.01910627      -3.42280078
Cu       8.52440945       3.00652466      18.37101810  T       0.36469790      -0.11543722      -0.71956683       0.00357222      -0.00449022       0.00034921      -4.15836668
Cu       5.70633072      14.46282593      15.15171030  T      -0.49349221      -0.14984608      -0.45688702      -0.00674281      -0.01059902       0.00867975      -4.19044638
Cu       5.71715248       3.04203132      20.80422238  T      -0.55412649      -0.48731890      -0.40704815      -0.01524253       0.00031040       0.02110587      -3.89029026
Cu       5.66095495      20.17817879       9.59222507  F       0.00000000       0.00000000       0.00000000       0.00139125      -0.00454309       0.14709276      -4.23459864
Cu       5.66095495       8.66078949       9.59222507  F       0.00000000       0.00000000       0.00000000      -0.01101070      -0.00686406       0.65735096      -2.35145664
Cu       8.49143314      20.17817879       6.76174784  F       0.00000000       0.00000000       0.00000000      -0.00431747       0.00212427       0.62729037      -3.45652318
Cu       8.46143623       8.63202675      12.41461123  T      -0.50597756       0.57744165       0.33805988      -0.01766803      -0.00177046       0.00137742      -4.23544121
Cu       8.56445114      14.51267491      12.33128094  T       0.21167991      -0.01093340      -1.68539139       0.00747234       0.01689266      -0.02050991      -4.20612907
Cu       8.03433972       3.45159260      12.89750639  T      -2.93900981       2.06325555       0.95359586      -0.00067987      -0.00956435       0.02612099      -3.73844361
Cu       5.66095495      14.41948509       9.59222507  F       0.00000000       0.00000000       0.00000000       0.01528315       0.28597811       0.14121574      -3.67956424
Cu       5.58334613       3.04451297      15.53925400  T       1.03644902      -1.23809909      -0.55100480       0.02706844       0.00227770       0.00382528      -4.20966101
W        0.00970949      20.16928813      12.37647522  T       0.96432632      -0.22972579       1.20315130      -0.00112603      -0.00732876       0.05322449     -11.70828629
W       -0.10249492       9.04762832      18.05532875  T      -0.46643841       2.74255482      -2.46215957      -0.00712668       0.02737891       0.00244933     -11.60598564
W        2.85667240      14.36166623      15.15918505  T      -1.69627906       0.07989363      -0.64108922      -0.01438165       0.00111201      -0.01079114     -11.73018456
W        3.15842530       3.62875834      21.23004277  T       0.14466134      -3.46559778      -1.94135023      -0.03019880       0.00972748      -0.01971169     -10.88087654
W        0.00000000      20.17817879       6.76174784  F       0.00000000       0.00000000       0.00000000       0.03570958      -0.03943894       2.32197809      -7.39641857
W       -0.02709423       8.67165545      12.41760691  T       0.44045010      -0.12444607       0.41087713      -0.02837829      -0.01066340       0.00685084     -11.73707294
W        2.83047748      14.41948509       9.59222507  F       0.00000000       0.00000000       0.00000000       0.20092160       1.33986235       0.45231506      -9.73188496
W        2.75092147       3.08460439      15.57228915  T       0.53083154      -2.02050233       0.25729320      -0.00032073       0.01227529      -0.00828108     -11.74968815
W        5.65970916      20.18146253      12.37720625  T      -0.88895969       1.91883327      -2.28211124      -0.02229761      -0.00179643       0.00968337     -11.70642853
W        5.54986628       9.04579144      18.07649423  T       0.58276709       0.58680231       1.45656087      -0.02562666       0.01476807      -0.00492576     -11.62256241
W        8.52616765      14.35834063      15.15415240  T       0.97513434      -1.29077519      -1.21047866      -0.00743704       0.00520170      -0.00577261     -11.74129391
W        8.36531143       2.96605001      20.99937687  T      -1.01867349      -0.35983718      -1.13863808      -0.02815223       0.03034937       0.01519012     -10.30284309
W        5.66095495      20.17817879       6.76174784  F       0.00000000       0.00000000       0.00000000       0.03703476      -0.03921123       2.32270098      -7.39561224
W        5.63385775       8.67289850      12.41735109  T       2.19505756      -0.99830163       2.40273594      -0.03893232      -0.03385595       0.00342149     -11.73816872
W        8.49143314      14.41948509       9.59222507  F       0.00000000       0.00000000       0.00000000       0.19812748       1.33512759       0.44259757      -9.73345661
W        8.42713936       3.05076552      15.53710410  T      -1.19493286      -0.57003865       2.12365119       0.00150148      -0.00070200      -0.00419454     -11.76678848
Se       3.77105305      19.46079072      16.59768966  T      -0.04209255       2.09417617      -1.81190024       0.05318375      -0.05827937      -0.01632338      -3.21918917
Se       4.27675106       7.43790377      16.85825146  T       1.86320628       0.48257302       0.76539609       0.04210773       0.01462497       0.00270863      -4.35117054
Se       1.33259291      18.68599418      13.68275837  T      -0.51274491      -0.14005924      -1.51060761      -0.00293145       0.01227293      -0.01001732      -4.37109900
Se       1.13311190       7.58940020      19.42579720  T       0.38853817      -1.57292810      -9.98917553      -0.03038694       0.02367107       0.00311489      -3.97636271
Se       1.55099562      15.48436088      16.81872831  T       1.03096930       0.89032032      -0.97465354       0.00423114      -0.02169801      -0.02821318      -4.38190985
Se       1.39293580       4.49542361      16.91856652  T       1.87124696      -0.50734162      -0.88565243       0.00207098      -0.01924164      -0.02333807      -4.32012320
Se       4.15295761      15.96346746      13.98103400  T      -0.88295348       1.30050663       1.38636238       0.00520264      -0.01522642       0.03024369      -4.33395147
Se       4.48171979       4.70104123      19.59078774  T      -0.16870052       0.21038808      -0.28396721      -0.00388420       0.00449566      -0.03580457      -4.34880924
Se       1.90329973      11.68956226      19.13705513  T       2.23490115      -0.09951391      -1.61294474       0.02937853       0.00580478      -0.01144873      -3.31201482
Se       1.72022850       2.06907460      20.18077003  T       0.70791184       0.76295413       1.33020410      -0.01615943       0.01293653      -0.00709689      -4.40530825
Se       4.27729733      12.79829438      16.27460463  T      -0.82857683      -0.06385149      -0.70552451      -0.01243493       0.01579050      -0.01567916      -4.42843580
Se       4.43811232       2.27831938      22.63974723  T      -1.02155886       0.40050098      -1.99478505       0.01314607      -0.01595996      -0.00188906      -4.02970791
Se       4.10829538      10.46860975      19.38537137  T       2.40483721      -0.99166302      -0.87942054       0.02266702      -0.00407493      -0.00305060      -3.91521406
Se       4.35400399      21.64073660      13.72729070  T       1.74693595       0.26728748      -1.16088240      -0.00322121      -0.00706042      -0.00425752      -4.37222672
Se       1.30284688      10.21490459      16.52617569  T      -1.30105727      -0.58851320      -0.26435279      -0.01110217      -0.01901950      -0.00457972      -4.32470560
Se       1.90809416      20.73515219      16.63544985  T       1.98973086      -0.79711656       0.75423209      -0.05888360       0.04984120      -0.01803508      -3.20362425
Se       4.29427099      18.74556732      11.05601883  F       0.00000000       0.00000000       0.00000000       0.02375376       0.02951267       0.12058980      -4.33981657
Se       4.29427099       7.22817707      11.05601883  F       0.00000000       0.00000000       0.00000000       0.31181067       0.21088624      -0.31565520      -4.53980780
Se       1.36668432      18.74556732       8.12843227  F       0.00000000       0.00000000       0.00000000      -0.31544495       0.48826414      -1.68118107      -4.50853062
Se       1.28264754       7.26837771      13.79991406  T      -0.89252065       1.05261076      -1.18267577      -0.01086191       0.00732197      -0.01862844      -4.34314632
Se       1.46379328      15.85209751      10.95890999  F       0.00000000       0.00000000       0.00000000       0.62256056      -0.55129588      -0.95258301      -4.43319845
Se       1.46379328       4.33470774      10.95890999  F       0.00000000       0.00000000       0.00000000       0.03052799       0.05342723       0.02571841      -1.92238533
Se       4.19716167      15.85209751       8.22554111  F       0.00000000       0.00000000       0.00000000      -0.68161333      -1.12438726       0.93675005      -4.04079962
Se       4.08251401       4.50450752      14.20286348  T      -0.30519372      -1.16890464       0.38303379       0.02315897       0.02205470       0.02283045      -4.42898989
Se       1.48248742      13.06455331      13.71074936  T      -1.36766611       0.64345327       0.26538969       0.02427160       0.01501610       0.01904395      -4.31524086
Se       1.43991109       1.67270366      14.16274982  T       0.02999596      -0.08131790       0.32220202       0.00066454       0.00015724       0.03653541      -4.39255381
Se       4.19716167      12.98687172      10.95890999  F       0.00000000       0.00000000       0.00000000      -0.08313271       0.11528756      -0.56716686      -4.41416121
Se       4.09717969       1.63390373      16.89023089  T      -0.37091843       0.64109924      -0.63616217      -0.01206669       0.02446725      -0.00670870      -4.32139349
Se       4.26295535      10.12862718      13.69205788  T       1.53880900      -0.41695706      -2.07042804      -0.01169247       0.00054459      -0.00736324      -4.33813238
Se       4.29427099      21.61079216       8.12843227  F       0.00000000       0.00000000       0.00000000       0.25720912      -0.41816559      -1.61370230      -4.49310970
Se       1.36668432      10.09340286      11.05601883  F       0.00000000       0.00000000       0.00000000      -0.35903436      -0.31825981      -0.32466087      -4.51218796
Se       1.36668432      21.61079216      11.05601883  F       0.00000000       0.00000000       0.00000000       0.01301998       0.04382578       0.10415298      -4.33240318
Se       9.38767123      19.29426727      16.45152257  T       2.42192296       1.63188269      -0.22796769      -0.00964518      -0.02357631       0.01239195      -3.23863602
Se       9.89740228       7.48668947      16.82730160  T      -0.48873448       0.19139874       1.02904485      -0.00580032       0.01931924       0.04200177      -4.34551048
Se       6.97301695      18.72138230      13.71672576  T       0.07595465       0.83309648      -0.69104729       0.01258999      -0.01175870      -0.01393501      -4.37902069
Se       6.84463136       7.73203766      19.51727936  T      -1.99234319       0.72010940      -0.75320549      -0.00352056       0.02326778      -0.01875174      -4.03056240
Se       7.22991010      15.48848372      16.81271158  T       0.87909037      -1.09591935      -0.59088338      -0.01826463      -0.00965007      -0.00273996      -4.38643456
Se       7.09096403       4.45880269      16.90088295  T      -1.08716255      -0.27031829      -1.92359488       0.01495988      -0.02274699      -0.02465498      -4.31657553
Se       9.81826675      15.96451514      13.98237385  T      -0.76063019       0.02306689       1.73181635       0.00664664       0.00808340      -0.00099042      -4.33026409
Se       9.58161953       4.67321878      19.85522108  T      -1.26418860       0.48715009       0.67014242      -0.03940174      -0.01002508      -0.01086418      -4.30124950
Se       7.64969680      11.73672040      19.15546833  T       0.03649563       1.07477751      -1.89357010       0.01858482      -0.00102504       0.01151071      -3.29315925
Se       7.18407731       1.44378063      19.65872853  T       0.82133024       1.07077453       2.04887119       0.01590347      -0.00440328       0.00000288      -4.36545944
Se       9.95007405      12.78551384      16.25559927  T      -1.37558679      -0.87848740      -0.43852991       0.01782525      -0.02083934      -0.02065336      -4.43849897
Se       9.70664114       1.65401351      22.41509881  T      -0.83005181       2.14775105      -2.21766066      -0.03020798      -0.00406706      -0.02303886      -4.02516365
Se       9.82414851      10.49555101      19.39558825  T       2.06360408      -1.38369441      -0.47295805       0.02941284      -0.03201553      -0.01261830      -3.91599417
Se      10.03669188      21.60064924      13.76390196  T       0.85061267      -0.31250590      -0.15895193      -0.00485289      -0.00110669      -0.03054615      -4.36746502
Se       6.90342203      10.25570386      16.53194457  T       0.37216879      -1.01642016       0.92991275       0.01486490      -0.00321764       0.01019968      -4.32521534
Se       7.62527599      20.71959376      16.57407716  T      -1.72617654      -0.13749060      -2.34592511      -0.00441479       0.00490996       0.00462236      -3.20023847
Se       9.95522594      18.74556732      11.05601883  F       0.00000000       0.00000000       0.00000000      -0.02166202       0.01647862       0.09670429      -4.34144354
Se       9.95522594       7.22817707      11.05601883  F       0.00000000       0.00000000       0.00000000       0.31415758       0.18924524      -0.32998425      -4.54161596
Se       7.02763939      18.74556732       8.12843227  F       0.00000000       0.00000000       0.00000000      -0.31578001       0.48912621      -1.67943287      -4.50862551
Se       6.94629440       7.26650656      13.79228412  T       1.09697826       0.64457930      -0.63364521       0.00445796      -0.00074028       0.00174356      -4.34753323
Se       7.12474823      15.85209751      10.95890999  F       0.00000000       0.00000000       0.00000000       0.61770254      -0.54480410      -0.94670433      -4.43381834
Se       7.12474823       4.33470774      10.95890999  F       0.00000000       0.00000000       0.00000000       0.02716414       0.05722198       0.00884052      -1.92346823
Se       9.85811710      15.85209751       8.22554111  F       0.00000000       0.00000000       0.00000000      -0.67984200      -1.12317169       0.93817818      -4.04032803
Se       9.74744246       4.49477800      14.18184068  T      -0.91278566      -0.47713500       1.33174576       0.00853939      -0.00218248       0.01440415      -4.42739105
Se       7.14426578      13.06467418      13.71376871  T      -0.95693645       1.10674340       0.52857780      -0.01913574      -0.00217455       0.00207783      -4.31991816
Se       7.07706141       1.65994365      14.14547591  T       2.74829331      -0.89611122      -0.69396567      -0.00851030       0.01890852       0.01495815      -4.39703751
Se       9.85811710      12.98687172      10.95890999  F       0.00000000       0.00000000       0.00000000      -0.08025097       0.11078164      -0.56801105      -4.41482735
Se       9.79168763       1.56731605      16.80627416  T      -0.54244344       1.13073104      -0.64250749      -0.00594347       0.01956080      -0.02386470      -4.34261370
Se       9.92324868      10.13716905      13.68135392  T       1.07715995      -1.24467156      -1.21839604       0.00312980       0.00235028      -0.00426601      -4.33407497
Se       9.95522594      21.61079216       8.12843227  F       0.00000000       0.00000000       0.00000000       0.26111704      -0.41580415      -1.61308408      -4.49397182
Se       7.02763939      10.09340286      11.05601883  F       0.00000000       0.00000000       0.00000000      -0.35872233      -0.30762118      -0.32929158      -4.51234484
Se       7.02763939      21.61079216      11.05601883  F       0.00000000       0.00000000       0.00000000       0.03505968       0.03623506       0.11375436      -4.33755589
O        1.36960735       7.56963820      22.82928664  T      -1.83534911       1.67172447       5.18788578      -0.07218088      -0.05258721       0.01898196      -6.14018869
C        1.10965333       6.15175369      22.97599710  T      -0.74717314       0.88953320       2.23955262       0.00804204      -0.05843359      -0.01394016      -9.44059658
C        2.32889503       5.33972697      22.51151170  T       0.05751243      -0.77331603       1.46187632       0.00636453      -0.07339716      -0.02536851      -9.58347893
H        1.18984286       7.79013000      21.88472592  T       0.02681828      -0.04479016       0.61460820       0.04451909       0.06880409      -0.02040531      -3.52450371
H        0.91922386       5.98343546      24.04664757  T       0.03510793      -0.33777553       0.58046361       0.00145925      -0.00486849      -0.00568384      -3.50018954
H        0.20036250       5.86569672      22.41394470  T      -0.06337629      -0.02339437       0.15697962      -0.01861432       0.01662755      -0.00737242      -3.56019497
H        3.24687900       5.72024534      22.95740597  T       0.05947595       0.02278220      -0.03938061       0.02856682      -0.00601520       0.01066710      -3.52494597
H        2.41436842       5.43615837      21.40222257  T      -0.37859794       0.06017665      -0.15821798       0.00884470       0.02373926       0.01937035      -3.80873108
H        2.17996434       4.27287705      22.83046908  T       0.46522110       0.10906379      -0.04889393      -0.03094277      -0.01748320       0.00135943      -3.80641961
