121
Lattice="11.32190990447998 -0.0 -6.999999919513338e-16 -3.700000002833815e-15 23.034778594970703 -5.66095495223999 -0.0 4.2000001634662394e-15 33.96573257446289" Properties=species:S:1:pos:R:3:move_mask:L:1:momenta:R:3:forces:R:3:energies:R:1 adsorbate_info="_JSON {\"site\": {\"coordinates\": [8.49143314, 2.90209508, 20.91413498], \"connectivity\": 1, \"topology\": [43], \"n_vector\": [-0.37471607227075104, 0.15892374259056014, 0.9134172700485745], \"h_vector\": [1.0, 0.0, 0.0], \"site_formula\": {\"W\": 1}}, \"smiles\": \"Cl\", \"mdf\": 1.7127647297895958, \"adsorbate_formula\": \"C2H6O\"}" bond_change_count=0 energy=-608.3404541015625 stress="0.0002072818169835955 -4.1625689846114255e-06 -1.0212563211098313e-05 -4.1625689846114255e-06 4.808755693375133e-05 -4.7252360673155636e-06 -1.0212563211098313e-05 -4.7252360673155636e-06 7.133003964554518e-05" free_energy=-608.3404541015625 pbc="T T F"
Cu       0.00354218      20.17854597      15.17716691  T      -0.63902439      -0.58501787       1.24860733       0.00307232      -0.00824963      -0.01575032      -3.90260959
Cu      -0.09271268       8.74005954      15.20108234  T      -0.50248376      -0.87408238       0.61425769      -0.01203559      -0.00036676       0.02359382      -4.21597767
Cu       2.83697183      20.17335144      12.40836117  T       0.24722418       0.51650039       1.95820956      -0.00717383       0.00716413       0.00198804      -4.18146133
Cu       2.70821426       8.91873295      18.05198653  T       0.31148623       0.32988850      -0.59351426      -0.00318976      -0.01379037       0.02670239      -4.21441174
Cu       2.60546450      13.50105719      17.64440972  T      -1.13560039      -2.19052958      -0.81303978      -0.03784414      -0.04163074       0.03298289      -3.44596553
Cu       2.99366368       2.83661549      18.19273586  T      -1.05396520       0.76389105       0.52772870      -0.00960071       0.02452779       0.04565901      -4.15652275
Cu       0.06540436      14.56213314      15.12408176  T      -0.01022046       0.32910732       1.17720249      -0.01572218      -0.04457500       0.02767842      -4.17832804
Cu       0.02573109       2.62247272      20.63090942  T      -0.00923742       0.18679379      -0.09691543      -0.06624313       0.00959896       0.04647769      -3.83335018
Cu       0.00000000      20.17817879       9.59222507  F       0.00000000       0.00000000       0.00000000       0.00055953      -0.00981417       0.15096837      -4.23008776
Cu       0.00000000       8.66078949       9.59222507  F       0.00000000       0.00000000       0.00000000      -0.00779722      -0.00432116       0.65111780      -2.35050249
Cu       2.83047748      20.17817879       6.76174784  F       0.00000000       0.00000000       0.00000000      -0.00693660      -0.00151479       0.62647945      -3.45321155
Cu       2.80230975       8.63844629      12.41242385  T      -0.41834075      -0.26556024       0.48176862      -0.00111292      -0.01387846       0.00120038      -4.23820877
Cu       2.91659873      14.53683870      12.31626807  T       0.55181745       1.04326880      -0.35252026       0.02686724       0.00829006      -0.00542680      -4.20235252
Cu       2.51687209       3.37398139      12.77260259  T      -2.65170050       2.65200122       1.93847751       0.00347674       0.01367357      -0.00532258      -3.69490719
Cu       0.00000000      14.41948509       9.59222507  F       0.00000000       0.00000000       0.00000000       0.01365583       0.28129894       0.13883993      -3.67812991
Cu       0.11723929       2.92878612      15.35979607  T       0.11759902      -0.31702572       0.54247106      -0.00259929       0.01955929       0.01230854      -4.21627760
Cu       5.67555802      20.14365284      15.18585358  T      -0.29593852      -1.48932171       1.93701350      -0.01648211       0.00327669      -0.01840389      -3.89624238
Cu       5.55829618       8.73704794      15.21160922  T       0.94636481       1.19721203      -0.43226748      -0.00508512       0.00545355      -0.00769706      -4.21967363
Cu       8.49322291      20.16760786      12.40964014  T       0.25068435      -0.41658967      -1.49639880      -0.00298010       0.00664092      -0.01910086      -4.19112301
Cu       8.37521122       8.92044241      18.04252187  T       0.45232934       0.77166959       0.15109331       0.00041508      -0.00960582       0.00789880      -4.21060753
Cu       8.25759975      13.51030048      17.64485021  T      -1.60150466      -1.39933840       0.18017694      -0.06678071      -0.04595996       0.04009086      -3.43448734
Cu       8.64084576       2.91663583      18.20337367  T      -0.75219387      -0.56892344       0.11123719       0.00067321      -0.01902628       0.01656926      -4.22872448
Cu       5.72078606      14.55813495      15.11840757  T       0.50775415      -1.33373713       0.77343711       0.00879425      -0.04071090       0.02330779      -4.17745161
Cu       5.56499917       2.92099992      20.98312122  T      -2.63812216      -0.54364960       0.01749381       0.01824559       0.02000470       0.01676331      -4.09007883
Cu       5.66095495      20.17817879       9.59222507  F       0.00000000       0.00000000       0.00000000       0.00860322       0.00156715       0.16123728      -4.23085928
Cu       5.66095495       8.66078949       9.59222507  F       0.00000000       0.00000000       0.00000000      -0.00729162      -0.00396353       0.65880287      -2.35408974
Cu       8.49143314      20.17817879       6.76174784  F       0.00000000       0.00000000       0.00000000      -0.00689067      -0.00066957       0.62758046      -3.45344615
Cu       8.46392957       8.63088127      12.41279412  T       1.70286022      -1.75796340       0.70862290      -0.01280461       0.01244476       0.00360652      -4.23661613
Cu       8.58138344      14.54330660      12.32073380  T      -1.05865300       0.22537028       0.15473485       0.03358830       0.00568773      -0.02836610      -4.19783783
Cu       8.18765833       3.38873727      12.77907566  T      -1.77850442       1.06484403       0.19702004      -0.00868651       0.01880979      -0.01676458      -3.69600296
Cu       5.66095495      14.41948509       9.59222507  F       0.00000000       0.00000000       0.00000000       0.01365509       0.28156397       0.13859276      -3.67793083
Cu       5.78122957       2.94388264      15.34121970  T       0.82649239      -1.04850245       1.30596832       0.00812427       0.01278796       0.01833984      -4.21961021
W        0.00411791      20.17420592      12.38114811  T       0.32777939       1.90870375      -0.22678399      -0.02831638      -0.02721832      -0.04701506     -11.70196915
W       -0.11321089       9.05136210      18.06068662  T       1.59155481      -0.30687371       1.49180289       0.03165001      -0.01305479      -0.06187208     -11.60030937
W        2.87586425      14.41553790      15.13608185  T       0.03217743       0.30361706       0.27747773       0.01347140      -0.00559956      -0.01195116     -11.74693012
W        2.73256629       2.69761636      20.78072228  T      -1.06076845      -4.69394810      -1.17181133       0.05012727      -0.02432869      -0.03218770      -9.87141323
W        0.00000000      20.17817879       6.76174784  F       0.00000000       0.00000000       0.00000000       0.03232362      -0.03567583       2.33071613      -7.39221430
W       -0.02284619       8.66832180      12.41574044  T      -0.90086568      -0.19017520       2.00577229      -0.01024892      -0.00097852      -0.00551194     -11.74011993
W        2.83047748      14.41948509       9.59222507  F       0.00000000       0.00000000       0.00000000       0.21878698       1.33571148       0.44365799      -9.73709297
W        2.94915900       2.94746370      15.38150307  T       0.88739591       1.13365049       0.19801965      -0.00185177       0.00245012      -0.00074559     -11.78242302
W        5.66777919      20.16619921      12.38243099  T      -0.57319613      -1.80870990      -0.47611728       0.05750927       0.04290923      -0.04492173     -11.70515919
W        5.54207503       9.05152719      18.04895633  T      -1.04244349      -0.69328965      -1.62484749       0.05076441      -0.03400758      -0.05876632     -11.60867405
W        8.53602760      14.42443399      15.13449315  T       0.63294177       2.13544683      -0.10365434       0.01353356      -0.00667053      -0.00231750     -11.74473572
W        8.68170567       2.77390195      20.90740457  T       6.51618885      -5.09640539      -2.27320083      -0.05063766       0.04804420       0.06620890      -9.72620487
W        5.66095495      20.17817879       6.76174784  F       0.00000000       0.00000000       0.00000000       0.03233032      -0.03581756       2.33180618      -7.39329767
W        5.63696570       8.66914391      12.41975406  T      -1.12286882       0.22938594       0.66574676      -0.00912132       0.00261751      -0.03786886     -11.73255348
W        8.49143314      14.41948509       9.59222507  F       0.00000000       0.00000000       0.00000000       0.22491196       1.34161210       0.45553946      -9.73521519
W        8.60535551       2.96059903      15.39732248  T       0.98072570      -1.02634331       1.82602555      -0.00121366       0.00980204      -0.01014048     -11.77523899
Se       3.71397341      19.43642982      16.51531902  T      -2.15133822       0.07505093      -1.62721213      -0.00008346       0.00925220      -0.00770597      -3.22195673
Se       4.22319879       7.48891587      16.82431983  T       0.44750496       0.05781913      -1.35460780       0.03659050      -0.00817087       0.02427000      -4.34628344
Se       1.32327985      18.71719381      13.71861719  T      -1.21943283       0.17515444      -1.43655085      -0.02142385       0.02179789      -0.00443730      -4.37166882
Se       1.16884475       7.68581878      19.46333618  T       0.53348976       1.16635001      -2.01802849      -0.01297170       0.02890019      -0.01181524      -4.02778196
Se       1.59612290      15.52583039      16.81855271  T       0.41687544       0.50794725      -0.59074809      -0.01858817       0.00695065       0.00166727      -4.38216162
Se       1.59869312       4.33687537      16.75517035  T       1.35507395       1.33636116      -2.11179640      -0.00161836       0.02260635      -0.00873272      -4.30174160
Se       4.14491780      16.03198605      13.95759026  T      -0.85555760       0.43755680       2.06348635       0.04264283       0.01204615      -0.01175825      -4.33139610
Se       3.99573302       4.43123928      19.76151290  T      -1.48514553       0.05410048       0.74307564      -0.00637341       0.03330845      -0.01306456      -4.23074198
Se       2.08081021      11.80425372      19.16486265  T       1.54010399       2.43858888      -1.24545007       0.02416080      -0.01388361      -0.00532140      -3.26548600
Se       1.56224522       1.26169629      19.34432880  T       2.09197017       0.19304589       0.89801164       0.04099554      -0.01792296      -0.01428262      -4.42264700
Se       4.32782797      12.83772491      16.19152566  T      -0.44225100       2.04939426       1.23016222      -0.01451539      -0.00670803       0.02334676      -4.43335867
Se       4.15110714       1.28872491      22.01194075  T      -2.35399226       1.24539596      -2.18435055       0.01062462      -0.00811361       0.03924040      -3.95585418
Se       4.18698062      10.49230110      19.42050936  T       1.45348124      -0.51172222      -3.05797970      -0.03857991       0.05561066       0.01475482      -3.92411900
Se       4.36645426      21.60827349      13.74758003  T       1.25608617       0.34856003      -1.27671001       0.00931622      -0.01571390      -0.01966688      -4.37722731
Se       1.25018246      10.27472694      16.53938942  T      -0.45062815      -0.62022330       0.89155672       0.03371329       0.00855904      -0.00809564      -4.33513355
Se       1.94509077      20.86538611      16.53452130  T      -0.37868792      -2.25706348      -1.55083050       0.00084012      -0.00902014      -0.00546770      -3.24155235
Se       4.29427099      18.74556732      11.05601883  F       0.00000000       0.00000000       0.00000000       0.00624139       0.00484153       0.10199054      -4.34771776
Se       4.29427099       7.22817707      11.05601883  F       0.00000000       0.00000000       0.00000000       0.32196581       0.20824459      -0.31394756      -4.54356623
Se       1.36668432      18.74556732       8.12843227  F       0.00000000       0.00000000       0.00000000      -0.31726521       0.49303931      -1.68006349      -4.50942659
Se       1.29449783       7.25777404      13.78397053  T      -1.28469211      -0.33020032      -1.69408364      -0.01378132       0.02581299       0.02106060      -4.34754419
Se       1.46379328      15.85209751      10.95890999  F       0.00000000       0.00000000       0.00000000       0.57622814      -0.49759984      -0.99146998      -4.43341255
Se       1.46379328       4.33470774      10.95890999  F       0.00000000       0.00000000       0.00000000       0.01208512       0.08013085      -0.02483593      -1.94655943
Se       4.19716167      15.85209751       8.22554111  F       0.00000000       0.00000000       0.00000000      -0.68548787      -1.12630212       0.94096148      -4.04041386
Se       4.25719042       4.40369129      14.02835728  T       0.33388670      -1.29433351       0.60172786       0.01739800       0.00936798       0.01177025      -4.43042898
Se       1.47692439      13.12448926      13.70916229  T       0.91811157      -0.10029076       0.16916207       0.00293583      -0.03463506      -0.02376482      -4.31501198
Se       1.61402079       1.54244078      13.98626950  T       1.07801993       0.83450101       0.30560253      -0.01450945       0.00477380       0.01425223      -4.39684248
Se       4.19716167      12.98687172      10.95890999  F       0.00000000       0.00000000       0.00000000      -0.07765078       0.10865785      -0.57131296      -4.41363764
Se       4.32952729       1.46569299      16.63178494  T      -1.37592961       0.15910001      -0.47398648      -0.00832290      -0.01155327       0.00567745      -4.33629417
Se       4.26929982      10.13898770      13.68276128  T      -0.80369430      -0.89544309      -0.99707225       0.00036560      -0.01284213      -0.00901711      -4.33457661
Se       4.29427099      21.61079216       8.12843227  F       0.00000000       0.00000000       0.00000000       0.28502512      -0.44328713      -1.63137555      -4.50091124
Se       1.36668432      10.09340286      11.05601883  F       0.00000000       0.00000000       0.00000000      -0.34381419      -0.29715350      -0.34251404      -4.51198578
Se       1.36668432      21.61079216      11.05601883  F       0.00000000       0.00000000       0.00000000       0.02265732      -0.04879208       0.09598260      -4.34432507
Se       9.40025538      19.41433265      16.51872043  T       1.15170123       1.59053991       0.47657744       0.00589361       0.00050812      -0.01091864      -3.22878027
Se       9.90213530       7.49091173      16.82371201  T      -0.59261281       0.35558656       0.91965989      -0.00579764      -0.02158707       0.01259134      -4.34911728
Se       6.98816748      18.70329313      13.71399210  T      -0.86041094       0.99488500      -0.54234594      -0.03034531       0.01131537      -0.01833003      -4.37520123
Se       6.83084738       7.68512748      19.44000102  T      -2.85526463       1.40509064      -0.12196512      -0.01667222      -0.00401933       0.01420109      -4.00694942
Se       7.24826856      15.53900303      16.80810808  T       0.44715941       0.12066127      -1.09886866      -0.01333530      -0.02130608       0.00193805      -4.38316298
Se       7.24554311       4.35536427      16.75628873  T       0.26987840      -0.97408129       0.34574946       0.00091922       0.01453212       0.00828600      -4.31689835
Se       9.81626547      16.03854758      13.96370929  T       0.33129079      -1.04139522      -0.29742407       0.01918730      -0.00438526      -0.02029362      -4.33166361
Se       9.92105609       4.39491157      19.73885315  T       0.22285815      -0.41753308      -0.11925386       0.02876636      -0.00159614       0.01478001      -4.39435053
Se       7.73237933      11.79662082      19.15467228  T       0.16057818       3.41224959      -1.55454524      -0.00547954       0.05178234      -0.03179222      -3.27979851
Se       7.23384873       1.48146958      19.59390649  T       0.61967523      -0.68775349       1.56636647      -0.03361949      -0.01227499      -0.01614031      -4.38507891
Se       9.98297140      12.84996026      16.20188368  T      -0.95018405       1.67607140       0.35613617       0.00004354      -0.01715100       0.00739762      -4.43540239
Se      10.01236245       1.27344237      22.09507868  T      -0.50006025       0.77747555      -1.37430063       0.02720921       0.03910455       0.00024384      -4.19611168
Se       9.84763354      10.51769991      19.40392071  T       1.67160507      -1.77725847      -1.89536013       0.02353308      -0.01029843       0.03969608      -3.91395855
Se      10.00803431      21.62202889      13.72871607  T      -0.15909765      -0.16939200      -0.70216229       0.02690874      -0.01995454      -0.01326638      -4.38201237
Se       6.91345009      10.27734139      16.53389685  T       0.11713207      -0.42280168       1.18608168       0.00614071       0.00015356      -0.00286438      -4.33216000
Se       7.60886291      20.80801080      16.56638379  T       0.01671910      -0.85440010      -1.75794942      -0.02053214      -0.00797106       0.00341209      -3.23380876
Se       9.95522594      18.74556732      11.05601883  F       0.00000000       0.00000000       0.00000000       0.04463296       0.03079480       0.12257638      -4.34344196
Se       9.95522594       7.22817707      11.05601883  F       0.00000000       0.00000000       0.00000000       0.30133650       0.17525943      -0.34417418      -4.54486227
Se       7.02763939      18.74556732       8.12843227  F       0.00000000       0.00000000       0.00000000      -0.31714094       0.49328664      -1.68218589      -4.50941753
Se       6.95351101       7.26449063      13.79445208  T      -0.13514753       0.02540500      -0.94893370      -0.01040823       0.00715009       0.00677326      -4.34878349
Se       7.12474823      15.85209751      10.95890999  F       0.00000000       0.00000000       0.00000000       0.58378994      -0.50257444      -0.98952436      -4.43408203
Se       7.12474823       4.33470774      10.95890999  F       0.00000000       0.00000000       0.00000000       0.02765433       0.06847747      -0.00008802      -1.94683135
Se       9.85811710      15.85209751       8.22554111  F       0.00000000       0.00000000       0.00000000      -0.68775892      -1.12884140       0.93912351      -4.04104900
Se       9.92748571       4.40407187      14.04390157  T      -1.58190835      -0.70576396       0.32816041       0.01834859       0.01760869       0.01882397      -4.42944717
Se       7.14464848      13.12685890      13.70384737  T      -0.34887024       1.10265885       0.44135039       0.00598424      -0.01565706      -0.00057779      -4.31679249
Se       7.29151220       1.55104092      13.98779908  T       0.78298485       1.08269338       0.34739067      -0.03048305       0.00335271       0.02008152      -4.39412975
Se       9.85811710      12.98687172      10.95890999  F       0.00000000       0.00000000       0.00000000      -0.08520029       0.12398517      -0.56743377      -4.41401386
Se       9.96637770       1.48600103      16.67357617  T      -0.45725951      -0.18780358      -0.68846820      -0.01505193      -0.00401833       0.00077537      -4.33614635
Se       9.93158367      10.14132532      13.67482475  T       1.08441646       0.27004767      -1.18404197       0.00292360      -0.02124899       0.01597226      -4.33419800
Se       9.95522594      21.61079216       8.12843227  F       0.00000000       0.00000000       0.00000000       0.28192371      -0.44203547      -1.62942159      -4.50073195
Se       7.02763939      10.09340286      11.05601883  F       0.00000000       0.00000000       0.00000000      -0.36570430      -0.33085212      -0.31029639      -4.51053667
Se       7.02763939      21.61079216      11.05601883  F       0.00000000       0.00000000       0.00000000      -0.02643519      -0.07023852       0.16954464      -4.33144045
O        6.60635694       4.37174010      22.30995899  T      -5.35521671       6.33016772       2.95108620      -0.04783054       0.00140373       0.00256196      -6.08090305
C        6.89310547       4.00815526      23.69131363  T      -1.21469803       0.59606020       0.32686316      -0.02292025      -0.00650202      -0.07608515      -9.70426369
C        8.37917465       4.23263800      23.86995469  T       0.10280192       0.29976342      -0.39026734      -0.04157302      -0.01471518       0.00791526      -9.29186916
H        7.52739295       3.96790825      21.88312087  T      -0.59743166      -0.06354078       0.48956068       0.04859740      -0.00436543      -0.02946317      -3.27669883
H        6.26740242       4.65292740      24.32686255  T       0.00166687      -0.42873801       0.36973724       0.01632124      -0.06502086      -0.00737473      -3.53738499
H        6.59951342       2.95041368      23.79186219  T       0.13383496       0.05749582      -0.19162310      -0.00840157       0.05461085       0.02225485      -3.50188351
H        8.65671933       5.22979582      23.51272988  T       0.00018138       0.06883819      -0.34461519      -0.01258212      -0.03442112       0.00059509      -3.58111072
H        8.95695724       3.46989869      23.30089576  T      -0.00871645      -0.02216556       0.00527397      -0.04505919      -0.00132006      -0.00210866      -3.84276819
H        8.65557533       4.12887491      24.92390231  T       0.09903216       0.19541645      -0.00491581       0.03692335       0.01275858       0.02988553      -3.62074089
