121
Lattice="11.32190990447998 -0.0 -6.999999919513338e-16 -3.700000002833815e-15 23.034778594970703 -5.66095495223999 -0.0 4.2000001634662394e-15 33.96573257446289" Properties=species:S:1:pos:R:3:move_mask:L:1:momenta:R:3:forces:R:3:energies:R:1 adsorbate_info="_JSON {\"site\": {\"coordinates\": [7.808090684999999, 15.135791300000001, 17.35176182], \"connectivity\": 2, \"topology\": [20, 84], \"n_vector\": [-0.3743395391761807, 0.5796683141379539, 0.723777973548399], \"h_vector\": [-0.555045215291036, 0.5818200400614008, -0.5944831788751281], \"site_formula\": {\"Cu\": 1, \"Se\": 1}}, \"smiles\": \"S1S\", \"mdf\": 0.8639338538381616, \"adsorbate_formula\": \"C2H6O\"}" bond_change_count=0 energy=-607.7431640625 stress="0.0002468252496328205 -6.129403118393384e-06 -1.636735578358639e-05 -6.129403118393384e-06 4.796505891135894e-05 -8.61182707012631e-06 -1.636735578358639e-05 -8.61182707012631e-06 7.877515599830076e-05" free_energy=-607.7431640625 pbc="T T F"
Cu       0.06314128      20.12308877      15.20593548  T      -1.40033591       0.53704083       1.27057063      -0.02664251       0.00461119      -0.01866992      -3.88366032
Cu      -0.09041284       8.65966865      15.20169792  T      -0.50947269       0.08410473       0.48660593       0.00125723       0.00699805       0.00343024      -4.23200893
Cu       2.84445668      20.17338569      12.41552119  T       1.26654517      -0.50072448       0.50260307      -0.01793477       0.00161473      -0.01230982      -4.18568468
Cu       2.74585274       8.74695943      18.04972050  T       0.28303751       0.57599240       0.03252009      -0.02084910      -0.02026166      -0.00145239      -4.22700167
Cu       2.65116364      13.42922787      17.65238403  T      -2.33061576      -2.30716195      -0.13137800      -0.01837955       0.03798007      -0.05266321      -3.45635962
Cu       2.90405951       2.88821479      18.23431922  T       1.47749259      -0.31024248       0.88459823      -0.00109562       0.00317322       0.03152445      -4.18235970
Cu       0.01109233      14.43916926      15.21505088  T      -0.16076162       0.51972330       1.26348706       0.00995665      -0.00527911       0.00935937      -4.21084118
Cu      -0.09995441       2.76531907      20.73923741  T       0.29650334      -1.36633935      -0.88074560      -0.00520183       0.00889076       0.00834978      -3.76717639
Cu       0.00000000      20.17817879       9.59222507  F       0.00000000       0.00000000       0.00000000       0.00326271      -0.00174747       0.15111136      -4.23076248
Cu       0.00000000       8.66078949       9.59222507  F       0.00000000       0.00000000       0.00000000      -0.01243982      -0.00434722       0.65345895      -2.35163784
Cu       2.83047748      20.17817879       6.76174784  F       0.00000000       0.00000000       0.00000000      -0.00690806      -0.00138612       0.62643212      -3.45381427
Cu       2.80257999       8.63031854      12.40914264  T      -0.29277677      -0.97006274      -0.49883465       0.00911316       0.00390750       0.00353828      -4.23797655
Cu       2.85773841      14.47951256      12.32179546  T       0.17668160      -0.64056584       1.09612182      -0.00384509      -0.00252467       0.00305626      -4.22527933
Cu       2.46509374       3.38308835      12.80610187  T      -0.57598881       2.71052970      -0.81039511       0.01720045      -0.00717064       0.01246646      -3.70620918
Cu       0.00000000      14.41948509       9.59222507  F       0.00000000       0.00000000       0.00000000       0.00924881       0.28822273       0.14042407      -3.67729473
Cu       0.05320232       2.92738742      15.39586095  T       0.46840598       0.48795556       0.30802562      -0.01088211       0.00917415      -0.00081309      -4.21726418
Cu       5.73096056      20.09897008      15.16160595  T      -0.42569133       0.22275630       1.38224573       0.00143890      -0.01268580       0.01509264      -3.84661412
Cu       5.60568177       8.74475214      15.20506054  T       0.63173245      -0.71289321      -0.00973794      -0.01023834      -0.00465521      -0.00242336      -4.21516132
Cu       8.49625126      20.17616252      12.40599432  T      -0.13911397       0.85521288      -0.66138626       0.02406506      -0.00418551      -0.00399002      -4.18431282
Cu       8.38937961       8.86682492      18.00642539  T      -0.73941617       0.70235584      -1.17997387       0.00196369      -0.00456209       0.02952310      -4.27392864
Cu       8.27994420      14.33727221      17.92867380  T       1.02083109     -11.94218316      -4.69724866       0.00933933      -0.03867078      -0.01202037      -4.04893684
Cu       8.56799932       2.88507737      18.23548327  T      -0.41275540       0.16532127      -0.13490962      -0.00251207       0.00017396       0.02355114      -4.18265581
Cu       5.67772188      14.56804747      15.05197221  T      -0.56540574       0.64276698      -0.32985531       0.00047010      -0.02393821       0.01553954      -4.18654633
Cu       5.56161624       2.77602446      20.73848452  T      -0.73315459      -0.73779800       0.98518767       0.00673546       0.00543034       0.01064684      -3.76505613
Cu       5.66095495      20.17817879       9.59222507  F       0.00000000       0.00000000       0.00000000       0.00204497      -0.00150531       0.14745653      -4.23025846
Cu       5.66095495       8.66078949       9.59222507  F       0.00000000       0.00000000       0.00000000      -0.00931203      -0.00654299       0.64937222      -2.34871459
Cu       8.49143314      20.17817879       6.76174784  F       0.00000000       0.00000000       0.00000000      -0.00699328      -0.00143013       0.62644434      -3.45382953
Cu       8.47186175       8.64360913      12.41877748  T      -0.83726867      -1.06692696       0.74235424       0.00225453       0.00051590       0.00191813      -4.23957872
Cu       8.55750562      14.49663380      12.33447707  T       0.23553988       0.66841719       0.23494061       0.01550427       0.01441809      -0.02420056      -4.23657799
Cu       8.12610728       3.38047143      12.80568627  T      -1.84885245       1.85973701      -0.13558364       0.01680400      -0.00141301       0.01615378      -3.70629454
Cu       5.66095495      14.41948509       9.59222507  F       0.00000000       0.00000000       0.00000000       0.00972229       0.29256013       0.14263800      -3.67939711
Cu       5.71205203       2.92887908      15.39707528  T       1.02598187      -0.89669620       0.62265012      -0.00597137       0.00569174      -0.00020165      -4.21836090
W        0.01019138      20.16719486      12.37853650  T       0.04108048       0.58345578      -2.62840941      -0.00292756      -0.01366280       0.02056997     -11.70402431
W       -0.08105397       8.80776186      18.02927051  T      -3.11104436       0.51590055       0.79202096       0.00963215       0.01757443      -0.00365448     -11.68044758
W        2.84162864      14.35223463      15.12951125  T      -0.21778865       1.82854676       1.28401696       0.01878577      -0.00847560       0.01532118     -11.73111725
W        2.72156110       2.83016774      20.85829924  T      -1.85923591      -1.96585603       1.92195755       0.02083892      -0.00358233      -0.00857824      -9.94216728
W        0.00000000      20.17817879       6.76174784  F       0.00000000       0.00000000       0.00000000       0.03322210      -0.03634112       2.32915044      -7.39227915
W       -0.01903430       8.66599414      12.41678717  T       0.84039989       1.09303952       0.72853852      -0.03026965      -0.02802325       0.01029944     -11.73673630
W        2.83047748      14.41948509       9.59222507  F       0.00000000       0.00000000       0.00000000       0.17385013       1.28762627       0.38450882      -9.74032116
W        2.87914235       2.95243100      15.42225001  T       1.78843871      -0.91532348       0.75138131      -0.00652713      -0.00195099      -0.00370669     -11.78031540
W        5.67241931      20.16546591      12.37934514  T      -0.18263054       1.16031108       1.40576143      -0.02008065      -0.01990250      -0.01253851     -11.70240879
W        5.54521050       8.95064503      18.02022419  T      -0.87035157       2.04943511       2.90316185       0.03486298      -0.03581637      -0.04472969     -11.59821701
W        8.48464958      14.50912336      15.15583001  T       1.48042083      -1.40398546      -2.00857177       0.00569161      -0.00324911      -0.01322340     -11.63479137
W        8.38821146       2.81441092      20.85597002  T      -1.35394252      -1.51501448      -2.21805259      -0.00379419       0.01525593      -0.01253605      -9.94278145
W        5.66095495      20.17817879       6.76174784  F       0.00000000       0.00000000       0.00000000       0.03319712      -0.03640977       2.32937956      -7.39216185
W        5.64328009       8.66630319      12.41397894  T       0.17714361       1.93291636       2.84401692      -0.02486052      -0.01887438       0.01216054     -11.74884224
W        8.49143314      14.41948509       9.59222507  F       0.00000000       0.00000000       0.00000000       0.18383048       1.32149100       0.43620068      -9.72936153
W        8.54122707       2.95125058      15.42277158  T      -1.46173699      -1.62168935      -2.12236477      -0.01068434       0.00238514      -0.00304314     -11.77755356
Se       3.76564653      19.32360239      16.55450250  T      -0.28605098      -0.02046938      -0.06885729       0.01631594       0.02930355       0.04673982      -3.71291876
Se       4.28511572       7.38602874      16.75698860  T       0.54090654       1.27515900       0.60322681      -0.03265208      -0.06587717      -0.04418302      -4.34817410
Se       1.33486171      18.69083273      13.69020419  T      -1.44622495       0.62426083      -1.50732133      -0.00263565      -0.01852136      -0.01118452      -4.36775684
Se       1.23639511       7.39599913      19.37192337  T      -1.36884416       1.98939868      -1.24885896      -0.03009447       0.03639108      -0.01290905      -4.02641010
Se       1.58680931      15.43727165      16.85010007  T       2.05252434       1.24632324       0.02430606      -0.00974862       0.00412475      -0.02092732      -4.36728525
Se       1.52250784       4.35430123      16.77670342  T      -0.25088439      -0.92789718       0.14949573      -0.00631626       0.01644701       0.01178114      -4.31123018
Se       4.05355682      15.99627946      13.91139832  T      -0.88296730       0.46950630       1.64239670      -0.00208554      -0.02058369       0.02754673      -4.33583593
Se       4.06009853       4.44660803      19.73294391  T      -0.71831260      -0.82966615       1.27340520       0.00266937       0.01445077      -0.00134856      -4.33665991
Se       2.11127880      11.73289741      19.13636916  T       1.10492476       0.12670683      -1.14387605      -0.01353708      -0.04657267       0.02828576      -3.25848150
Se       1.48881791       1.37285752      19.50123377  T       1.43782984      -0.15382897       2.33648676      -0.00691685      -0.02165005      -0.00002568      -4.44198227
Se       4.35628520      12.81796201      16.16054203  T      -1.11991203      -1.24459977      -0.38939973      -0.02848367       0.01614956       0.01425203      -4.43929911
Se       4.12017788       1.46942955      22.15824761  T      -1.76426372       2.62397148      -1.16969639      -0.02169324      -0.00897184       0.00492036      -4.03686666
Se       4.16333762      10.36559384      19.38973815  T       0.05183490      -0.68861570      -1.64043802      -0.03621426       0.01313925       0.07529946      -3.92553544
Se       4.36650243      21.57348154      13.78306277  T       0.07168474       0.02220555      -1.40872033       0.01473630       0.01392594      -0.02268711      -4.38197231
Se       1.27789777      10.14711710      16.59287406  T      -2.50386415       0.69015134       1.48354923       0.00071642      -0.02998524       0.01936043      -4.31557751
Se       2.01574747      20.87959069      16.44473956  T      -0.95739853      -0.66646273      -0.62566664      -0.00402877       0.02121475       0.00214722      -3.05336189
Se       4.29427099      18.74556732      11.05601883  F       0.00000000       0.00000000       0.00000000       0.01585183       0.01981394       0.09003416      -4.34279728
Se       4.29427099       7.22817707      11.05601883  F       0.00000000       0.00000000       0.00000000       0.31585380       0.17212886      -0.35456657      -4.54232883
Se       1.36668432      18.74556732       8.12843227  F       0.00000000       0.00000000       0.00000000      -0.31632096       0.49205774      -1.68175745      -4.50927496
Se       1.30096244       7.22987652      13.75764821  T      -2.26532420      -0.47242334      -1.35133054      -0.00248263       0.00581326      -0.01016319      -4.35012484
Se       1.46379328      15.85209751      10.95890999  F       0.00000000       0.00000000       0.00000000       0.56201798      -0.51930821      -0.98201525      -4.43510389
Se       1.46379328       4.33470774      10.95890999  F       0.00000000       0.00000000       0.00000000       0.00890622       0.08416256      -0.02530955      -1.94166696
Se       4.19716167      15.85209751       8.22554111  F       0.00000000       0.00000000       0.00000000      -0.66662294      -1.11156464       0.94470978      -4.03715038
Se       4.20457914       4.40084283      14.07784240  T       1.88264796      -1.12165566       0.01393826       0.01381624       0.00970398      -0.00824821      -4.42924404
Se       1.42041142      13.04310683      13.74507638  T       1.86860062       0.16974083       2.28728076       0.02850457      -0.00047882       0.02213519      -4.30938959
Se       1.55458919       1.54908572      14.01819981  T       0.07978470       1.99026766       0.19004022      -0.01999835       0.00632951      -0.00318606      -4.39493275
Se       4.19716167      12.98687172      10.95890999  F       0.00000000       0.00000000       0.00000000      -0.08624877       0.08654778      -0.55638862      -4.40873051
Se       4.23679739       1.46747287      16.69055849  T       0.48673487      -1.02619688      -1.47904968       0.00580347       0.00884400       0.01123986      -4.33018064
Se       4.27670131      10.12562619      13.68564566  T       0.13611497      -0.20914837      -0.59181680      -0.00280485      -0.00019849       0.01272685      -4.32944822
Se       4.29427099      21.61079216       8.12843227  F       0.00000000       0.00000000       0.00000000       0.27663273      -0.43646780      -1.62561679      -4.50095129
Se       1.36668432      10.09340286      11.05601883  F       0.00000000       0.00000000       0.00000000      -0.34595168      -0.29781824      -0.32789740      -4.51375437
Se       1.36668432      21.61079216      11.05601883  F       0.00000000       0.00000000       0.00000000       0.00858201      -0.02723773       0.14500430      -4.33633280
Se       9.42961467      19.36510980      16.53634439  T      -0.67747041       0.26532768       0.23577502       0.00672215       0.02123562      -0.03206041      -3.20596337
Se       9.88101419       7.34097191      16.73154351  T       1.01656324      -0.25237016      -0.99814432       0.03617089       0.03351159       0.03244302      -4.31878710
Se       6.99226196      18.67042663      13.67446996  T      -0.66822825       1.75126640       0.20141520      -0.00489491      -0.00654903      -0.02235737      -4.38113213
Se       6.84863152       7.63680097      19.44374931  T      -0.47575957       2.79021313      -0.96367063       0.00701162      -0.03403369       0.03366587      -4.03477621
Se       7.11749730      15.96873887      16.44254411  T      -1.49742348      -1.27363326      -3.66840176      -0.00186131      -0.00896429       0.01439163      -4.27666378
Se       7.18173176       4.35298941      16.77596797  T       1.16698042       0.63898382      -1.25266771      -0.00060054       0.00912257       0.01321893      -4.31082630
Se       9.90335145      15.92487945      13.88655427  T      -0.12512142       0.68309112       1.15194188       0.01312391       0.01671163      -0.00412323      -4.32293081
Se       9.72456363       4.43917010      19.73858354  T      -2.01045367       0.44645536       1.04388497       0.00015666       0.00169584       0.00929671      -4.33326817
Se       7.17092000      12.55185587      19.09010737  T      -1.04091895      -2.81498132      -2.40954372       0.02045123       0.04578393       0.03911746      -2.85254335
Se       7.13706771       1.37756987      19.49234067  T      -1.16911064       2.47053027       1.53215540      -0.00476789      -0.01203499      -0.00127802      -4.43993568
Se       9.77192297      13.04967443      16.52731706  T       1.76285006       0.42119167      -0.90521327      -0.00636440       0.00195043       0.03282814      -4.35817337
Se       9.78451641       1.43328760      22.13659003  T      -1.45127754       2.55196124      -0.14467353      -0.01216872      -0.01412362       0.00521825      -4.03800392
Se       9.89720528      10.25280840      19.30651843  T       1.18177835      -0.13318332      -1.67198245       0.02433139      -0.00582618      -0.03692052      -4.03157616
Se      10.02827545      21.57705867      13.77409640  T       0.14761804      -0.98045023      -0.92403280      -0.00864050       0.02408908      -0.02293698      -4.37726402
Se       6.91226533      10.27686170      16.59737688  T      -1.37334457      -0.83809528       0.64534561       0.03682690       0.04330226      -0.02866078      -4.37045431
Se       7.63116929      20.75483034      16.56579484  T      -0.77710001      -1.09132191      -1.21163883       0.01870596      -0.00957632       0.01974687      -3.23509431
Se       9.95522594      18.74556732      11.05601883  F       0.00000000       0.00000000       0.00000000       0.02202900       0.01881108       0.08969679      -4.34391403
Se       9.95522594       7.22817707      11.05601883  F       0.00000000       0.00000000       0.00000000       0.30506694       0.21445870      -0.33382443      -4.54158592
Se       7.02763939      18.74556732       8.12843227  F       0.00000000       0.00000000       0.00000000      -0.31704888       0.49214259      -1.68070853      -4.50929403
Se       6.96538443       7.25413760      13.77533228  T      -1.28003125       0.71845874       0.57032203       0.00334947       0.01330776       0.01699177      -4.35241413
Se       7.12474823      15.85209751      10.95890999  F       0.00000000       0.00000000       0.00000000       0.62144363      -0.57300842      -0.95095444      -4.42827129
Se       7.12474823       4.33470774      10.95890999  F       0.00000000       0.00000000       0.00000000       0.01165076       0.07903811      -0.02362110      -1.94100857
Se       9.85811710      15.85209751       8.22554111  F       0.00000000       0.00000000       0.00000000      -0.67451656      -1.11919332       0.93309933      -4.04047871
Se       9.86663482       4.39983024      14.07847843  T       0.02994303      -0.97963184       0.01612079       0.00441504       0.00148080      -0.00870581      -4.43121910
Se       7.16791395      13.08120923      13.77896296  T      -0.35650018       0.52746065       0.34093268      -0.00163848      -0.02164572      -0.00539207      -4.31564808
Se       7.21430502       1.54865427      14.02045386  T       0.79610233      -0.15834056      -1.77877975      -0.01601909       0.00738293      -0.00547491      -4.39569807
Se       9.85811710      12.98687172      10.95890999  F       0.00000000       0.00000000       0.00000000      -0.08176388       0.07987384      -0.58382034      -4.41146278
Se       9.90067406       1.46692622      16.69046057  T      -2.62915875      -1.05215238      -0.94865413       0.00090022       0.00819806       0.01071874      -4.33132315
Se       9.94510853      10.11951798      13.71293164  T       0.66525046       0.29482762      -0.52592817       0.00418759       0.00606056      -0.01206857      -4.34243536
Se       9.95522594      21.61079216       8.12843227  F       0.00000000       0.00000000       0.00000000       0.27613282      -0.43595159      -1.62579596      -4.50088024
Se       7.02763939      10.09340286      11.05601883  F       0.00000000       0.00000000       0.00000000      -0.31326157      -0.27628639      -0.34656084      -4.51138067
Se       7.02763939      21.61079216      11.05601883  F       0.00000000       0.00000000       0.00000000      -0.00430300      -0.01678352       0.14860184      -4.34029436
O        8.97944890      15.68946938      19.27836936  T       3.20324024       6.83066145       5.88132876      -0.01468374      -0.02062738       0.08401823      -6.88521719
C        8.49902642      15.87649673      20.42398977  T       2.57411425       5.55958349       0.67516333       0.01065260       0.05492240      -0.03306031      -7.65586472
C        7.29967178      16.72905327      20.65801659  T      -0.16885117       1.07343633       1.88062347      -0.02684575       0.01405781      -0.01418075      -9.68114090
H        7.14769683      13.26713370      20.41321317  T      -0.88882099      -0.45445254       0.89135747       0.00329898      -0.02961451      -0.01118356      -3.37084675
H        9.01862664      15.42018737      21.28888683  T      -0.55486692      -0.24784137      -0.30180247       0.02283654      -0.03042403      -0.03090966      -3.74070978
H        6.91286097      16.52660370      21.66860858  T      -0.10219129      -0.03786796       0.14392390       0.01295599       0.01205905       0.01801305      -3.63783383
H        6.52010241      16.51136123      19.91291500  T       0.10799420      -0.25059810      -0.24597806      -0.02021712      -0.01093766      -0.02419585      -3.65891409
H        7.55652386      17.79796839      20.58103787  T      -0.44428520       0.13396158       0.24740168       0.04356460       0.00040987      -0.00445555      -3.65136242
H        4.20421794      19.79094488      17.94249787  T      -2.13014260       2.12200664      -1.10523610      -0.02790205       0.00156084      -0.05390888      -3.17065001
