121
Lattice="11.32190990447998 -0.0 -6.999999919513338e-16 -3.700000002833815e-15 23.034778594970703 -5.66095495223999 -0.0 4.2000001634662394e-15 33.96573257446289" Properties=species:S:1:pos:R:3:move_mask:L:1:momenta:R:3:forces:R:3:energies:R:1 adsorbate_info="_JSON {\"site\": {\"coordinates\": [8.49143314, 14.41948509, 18.08365822], \"connectivity\": 1, \"topology\": [20], \"n_vector\": [0.15849571917356992, 0.36515655571586786, 0.9173547824159294], \"h_vector\": [1.0, 0.0, 0.0], \"site_formula\": {\"Cu\": 1}}, \"smiles\": \"Cl\", \"mdf\": 1.7127647297895932, \"adsorbate_formula\": \"C2H6O\"}" bond_change_count=0 energy=-608.4297485351562 stress="0.0002452100452501327 -9.462054549658205e-06 -1.744933433656115e-05 -9.462054549658205e-06 4.9106372898677364e-05 -9.152086931862868e-06 -1.744933433656115e-05 -9.152086931862868e-06 7.02610777807422e-05" free_energy=-608.4297485351562 pbc="T T F"
Cu       0.04447135      20.10374442      15.16553838  T       0.20043711       0.43594337       0.81874393      -0.02239639       0.02929584       0.00354359      -3.89470530
Cu      -0.01540949       8.77019038      15.20397433  T      -1.27457271      -0.70556458      -1.14870696      -0.00234478      -0.00122698       0.03468740      -4.22235346
Cu       2.84348094      20.18692609      12.40345054  T       0.96851367      -1.06920030       1.03867426      -0.00568897      -0.00212587      -0.01951909      -4.18850231
Cu       2.76926859       8.88812164      18.00395195  T      -0.20158321      -0.40830495       0.27047854      -0.00843093       0.00170266       0.00816691      -4.27197266
Cu       2.31790539      14.41339977      17.73746531  T      -1.13266299      -1.76335354      -0.65276736       0.05781594      -0.03543122       0.02171791      -3.69739437
Cu       2.90403225       2.87677839      18.24597004  T      -0.79248268       1.22394388       0.33341589      -0.00447387       0.01484431       0.00365405      -4.18453693
Cu      -0.04403972      14.52519829      15.08499169  T       0.90034871       0.39528289      -0.31507004       0.03583274       0.02888748      -0.02735113      -4.17903948
Cu      -0.10551952       2.74159619      20.75899122  T       0.45401871      -0.01191071       0.31312220       0.01373836       0.00466438      -0.01151484      -3.76053548
Cu       0.00000000      20.17817879       9.59222507  F       0.00000000       0.00000000       0.00000000       0.00338175      -0.00231122       0.13612559      -4.22934055
Cu       0.00000000       8.66078949       9.59222507  F       0.00000000       0.00000000       0.00000000      -0.01059120      -0.00639945       0.65526330      -2.35238647
Cu       2.83047748      20.17817879       6.76174784  F       0.00000000       0.00000000       0.00000000      -0.00673552      -0.00094937       0.62629229      -3.45400143
Cu       2.81380227       8.64551759      12.41830038  T       0.29771940      -0.19865855       2.07622363      -0.01230648      -0.00415184      -0.00027626      -4.24158907
Cu       2.84366508      14.45004991      12.32779065  T       0.40885277      -0.23042368       0.66153464       0.03466189       0.01785734      -0.02683882      -4.23752308
Cu       2.47085250       3.37220277      12.79989471  T      -1.74255601       0.82499143      -0.23284081      -0.00756052       0.01193521       0.01012999      -3.70115566
Cu       0.00000000      14.41948509       9.59222507  F       0.00000000       0.00000000       0.00000000       0.00401527       0.30331042       0.15003651      -3.67890787
Cu       0.04732530       2.95114439      15.39601222  T      -0.17526290      -1.13067803       0.50523072      -0.00002817      -0.00273764       0.00261052      -4.21926928
Cu       5.69913321      20.11404715      15.16618412  T      -1.64052417      -0.54251353       0.55985405       0.00447128       0.02255367       0.00539331      -3.90242887
Cu       5.58314476       8.60079657      15.17361536  T       0.89805422      -0.75250141      -0.00889823      -0.00100921       0.01046991       0.02014081      -4.23293114
Cu       8.49910968      20.17823753      12.40734608  T      -0.81168258      -0.85560832       0.38240828       0.00459603       0.00220525      -0.01843824      -4.18859005
Cu       8.44472166       8.77236797      18.00181539  T       1.79227396       1.00294426      -0.24067444      -0.00307594       0.00047234      -0.00698044      -4.27071285
Cu       8.98352593      14.96345269      17.77897173  T      -4.26088794      -3.24221237      -0.77097279      -0.01610800      -0.04080212      -0.03695174      -3.85771990
Cu       8.55696093       2.87946830      18.24771498  T       0.70239225      -0.75311510       1.52436359       0.00223576       0.02037630       0.00645263      -4.18429375
Cu       5.61645424      14.50857394      15.23340639  T       0.64597426      -0.33569648       1.27718038       0.03588776       0.01742924       0.01462420      -4.20909882
Cu       5.55402114       2.73472173      20.76020739  T       0.26467151      -0.19925699      -0.23303922       0.01612146      -0.00092702      -0.00815267      -3.76175070
Cu       5.66095495      20.17817879       9.59222507  F       0.00000000       0.00000000       0.00000000       0.00564297      -0.00251058       0.13525772      -4.22951221
Cu       5.66095495       8.66078949       9.59222507  F       0.00000000       0.00000000       0.00000000      -0.01123468       0.00014400       0.64798725      -2.34896851
Cu       8.49143314      20.17817879       6.76174784  F       0.00000000       0.00000000       0.00000000      -0.00674181      -0.00094144       0.62648100      -3.45404339
Cu       8.46999724       8.63844105      12.41036292  T      -0.96999039      -0.31881411       1.65128106       0.01793225       0.00364641       0.00556156      -4.23516798
Cu       8.43599469      14.39189582      12.35787874  T      -0.53308811      -1.63599493       0.36850644      -0.00047752      -0.00737789      -0.01915516      -4.22209215
Cu       8.13489244       3.36751962      12.79629124  T      -2.23247127       1.99087385      -0.84351559      -0.00493918       0.02293946       0.00954562      -3.69399500
Cu       5.66095495      14.41948509       9.59222507  F       0.00000000       0.00000000       0.00000000       0.00418323       0.30528319       0.14194164      -3.67923427
Cu       5.70797632       2.95774516      15.39697875  T       0.27903847       1.72534298      -0.48199039      -0.00112245      -0.00750797      -0.00714021      -4.21743965
W        0.00584653      20.17014353      12.37399927  T      -1.07421230       1.17895155       1.23529870       0.03416839       0.01522677       0.00405395     -11.71593952
W       -0.07431240       8.95514639      17.99136233  T       1.08341598       2.96267085       0.74749303       0.01093778      -0.01670930      -0.02201678     -11.52907276
W        2.77170838      14.53955449      15.11917784  T      -0.95055340      -0.33722288       0.62380309      -0.00305369       0.01141503       0.03707771     -11.76173782
W        2.72071774       2.78294846      20.86778664  T       0.37628370      -0.94726044      -2.41612156      -0.00077981       0.00567667      -0.01013219      -9.94410610
W        0.00000000      20.17817879       6.76174784  F       0.00000000       0.00000000       0.00000000       0.03391439      -0.03672438       2.32757688      -7.39209557
W       -0.02159724       8.67246669      12.41765829  T       1.55312550      -1.44275014       2.29879601      -0.00178834      -0.01289572      -0.03557914     -11.74308777
W        2.83047748      14.41948509       9.59222507  F       0.00000000       0.00000000       0.00000000       0.15187944       1.26625443       0.36740643      -9.73950005
W        2.87583193       2.96516760      15.42411101  T       0.17470019       0.21040980       0.55831490       0.00458840      -0.00466876      -0.00866950     -11.76982307
W        5.67052034      20.16476216      12.37417521  T       1.60880143      -0.43433767      -0.50567368       0.04305878       0.04058795       0.00641602     -11.71796989
W        5.61456071       8.76344119      17.97841018  T       0.14983296       1.48319555       1.77863735      -0.01105846      -0.00990287       0.00578851     -11.67479134
W        8.45241022      14.44556722      15.16681588  T       1.23529773      -0.03862797       0.08850520       0.01528546       0.00479549      -0.00838931     -11.53479862
W        8.37956008       2.78973138      20.86877213  T       1.75629390      -1.88903371       1.50930957       0.01362839       0.01694171      -0.00178927      -9.94598579
W        5.66095495      20.17817879       6.76174784  F       0.00000000       0.00000000       0.00000000       0.03396229      -0.03691481       2.32751632      -7.39201069
W        5.64853096       8.65735309      12.41241326  T       1.01777676      -1.16756572       1.08855258      -0.01940285      -0.00723151      -0.02350211     -11.75085258
W        8.49143314      14.41948509       9.59222507  F       0.00000000       0.00000000       0.00000000       0.11321023       1.22679424       0.36619976      -9.73592091
W        8.53605724       2.96493098      15.42483798  T      -1.81294573       0.45636835      -1.11089247       0.00335032       0.00161851      -0.00618944     -11.77573395
Se       3.76865903      19.31565734      16.47179107  T       0.97148914       1.45501022      -1.69581688       0.03561359      -0.03988319       0.01376294      -3.24981594
Se       4.22477845       7.29881478      16.72051128  T      -0.19350503       0.79673729       1.31288569       0.00280745       0.02148975       0.02540705      -4.31449842
Se       1.33836072      18.70208279      13.68426482  T      -1.52698582       0.85717425       1.00248847      -0.01047119      -0.02672839      -0.01087677      -4.38138771
Se       1.21826083       7.67461504      19.45654037  T      -2.40273099       1.23846119      -0.10935154      -0.01586405       0.02028005      -0.03513595      -4.04727077
Se       1.38899145      16.07222906      16.32257146  T       0.61476655      -0.37560535       0.81919058      -0.00388970      -0.01115626       0.05094588      -4.37674475
Se       1.51863266       4.35930642      16.78860183  T       1.42527338       0.90183750      -2.45653787       0.01402185      -0.00205612      -0.01416002      -4.31132936
Se       4.19260700      15.93173709      13.82666638  T      -1.71431255      -0.77507653       1.48575266       0.03561596       0.00413444      -0.01445791      -4.31309366
Se       4.06266620       4.41183383      19.76372853  T       1.44334559      -1.04004106       0.50529585       0.00244059       0.02701768       0.00711846      -4.33120394
Se       1.44224504      13.84987453      19.81751037  T       1.23148063       2.11505016      -1.66603310      -0.00507577       0.00478813       0.03387311      -2.27842474
Se       1.47017726       1.36318199      19.48687389  T       2.01215174       2.10697116       0.40107293      -0.01330391      -0.01743662       0.00530720      -4.43966961
Se       4.04812195      13.18498679      16.60772024  T      -1.17145472       1.30261470       1.44787662      -0.02794789       0.00773629       0.04870285      -4.41609192
Se       4.11361185       1.38482008      22.13396516  T      -1.18797467       1.78627769      -3.09841028      -0.01838221      -0.01254866       0.01826151      -4.04024315
Se       4.34055487      10.24368705      19.27519068  T       1.75869905      -1.69928012       0.30733186       0.01215887       0.00604016      -0.02859810      -4.03007364
Se       4.37006512      21.59851157      13.74736158  T       0.67334230      -0.83615410      -1.54796198      -0.00912496       0.03416371       0.02355047      -4.37080765
Se       1.28522992      10.31413517      16.59691271  T       0.09429500       0.45180610       0.29255060      -0.04234748      -0.03832442       0.03067937      -4.35129213
Se       1.98318775      20.70713846      16.57463510  T       0.39512340      -2.60594580      -0.86105154      -0.04704454       0.02835758      -0.00735912      -3.22008324
Se       4.29427099      18.74556732      11.05601883  F       0.00000000       0.00000000       0.00000000      -0.02260226      -0.03607328       0.03664715      -4.34331656
Se       4.29427099       7.22817707      11.05601883  F       0.00000000       0.00000000       0.00000000       0.26031184       0.17466432      -0.39065427      -4.54109859
Se       1.36668432      18.74556732       8.12843227  F       0.00000000       0.00000000       0.00000000      -0.31629026       0.49139050      -1.68079340      -4.50908899
Se       1.30336699       7.25758898      13.77171597  T      -0.79750081       0.73344302      -0.17039635       0.02718387      -0.00580283       0.01500121      -4.35753059
Se       1.46379328      15.85209751      10.95890999  F       0.00000000       0.00000000       0.00000000       0.58188355      -0.55697411      -0.94870937      -4.43017960
Se       1.46379328       4.33470774      10.95890999  F       0.00000000       0.00000000       0.00000000       0.01772998       0.07099234      -0.01816048      -1.94279027
Se       4.19716167      15.85209751       8.22554111  F       0.00000000       0.00000000       0.00000000      -0.65656143      -1.10360861       0.93811584      -4.03685236
Se       4.19449742       4.41232020      14.06676372  T      -1.02048205      -0.76196983      -0.42246460       0.00092496      -0.01946872       0.03776845      -4.43651295
Se       1.44758889      13.04865464      13.82008619  T      -0.57379283      -0.00967912       0.52127181      -0.00063458      -0.01511307      -0.00719607      -4.32508755
Se       1.54783967       1.55695325      14.02598243  T       0.23112928       0.46062819      -0.25127178      -0.00195512       0.02149282       0.01867911      -4.39742994
Se       4.19716167      12.98687172      10.95890999  F       0.00000000       0.00000000       0.00000000      -0.08846747       0.05028254      -0.56526971      -4.40781975
Se       4.24545289       1.48618134      16.69036528  T      -0.81022103      -0.73648884      -1.93664929      -0.02509717       0.01574332      -0.00874497      -4.33334017
Se       4.29241256      10.10144105      13.72051972  T       0.76501378      -1.66401161      -2.09013512      -0.00593951       0.01596123       0.00845592      -4.33846951
Se       4.29427099      21.61079216       8.12843227  F       0.00000000       0.00000000       0.00000000       0.27413881      -0.43394396      -1.62437117      -4.50037003
Se       1.36668432      10.09340286      11.05601883  F       0.00000000       0.00000000       0.00000000      -0.32970732      -0.28176093      -0.33560622      -4.51220512
Se       1.36668432      21.61079216      11.05601883  F       0.00000000       0.00000000       0.00000000       0.01737144       0.02693263       0.08521785      -4.33599949
Se       9.42758573      19.40073130      16.52326540  T      -1.08553578       0.56247507       0.15919897      -0.02261502       0.00580573       0.00435087      -3.23065114
Se       9.99701920       7.37065843      16.73817851  T       1.17604912       0.18661471       1.30437883       0.03153512       0.04398058       0.01647258      -4.33749628
Se       6.99595794      18.69556219      13.69142090  T      -1.87654821       0.08903032      -0.37206950       0.00489657      -0.03971138       0.00777055      -4.37909698
Se       6.96006394       7.40226632      19.34174665  T      -1.25105533       1.36636812      -0.48576212      -0.01528807       0.00655416      -0.01237784      -4.03300905
Se       7.19903041      15.90588911      16.57475349  T       0.61417545      -0.34177751      -0.19929255       0.00529181       0.04189622       0.05501644      -4.33272171
Se       7.18344415       4.36368888      16.78690923  T      -1.35767586      -0.63236409      -1.11357234       0.01058572       0.00582596      -0.00730218      -4.31002378
Se       9.74668039      15.89292003      13.80616179  T      -1.39403806       0.27229237       0.84854114       0.03928513       0.02364754      -0.05398552      -4.35584831
Se       9.71828091       4.41862492      19.75957398  T       0.18113153      -0.24519210       0.84148899      -0.00397253       0.00590426       0.01479646      -4.33348513
Se       8.56862982      12.37695807      18.56731991  T       0.04866105       0.36916931      -1.77727599       0.04454134       0.00492655       0.00430543      -2.87343550
Se       7.13764286       1.35678993      19.49447658  T       2.11770410       0.77205435       0.92120937      -0.02059773      -0.01918099      -0.00374354      -4.44090843
Se       9.81718137      12.90008839      16.41329284  T       1.51935516       1.38994837      -0.33287277      -0.00673550       0.00485319       0.05506663      -4.21218348
Se       9.77651520       1.40098152      22.14109282  T      -0.97590272       0.59831768      -1.43640048      -0.02162911      -0.00815240       0.01537488      -4.04157925
Se       9.80707037      10.37154185      19.31822885  T       2.19626791      -1.56439136      -0.65830413       0.02274461      -0.03113723      -0.02909008      -4.12262392
Se      10.02266667      21.60052907      13.74630607  T      -1.54561545      -1.04006101      -0.96766369       0.01741914      -0.00638776       0.02533843      -4.37057161
Se       6.96007899      10.10057996      16.53125244  T      -0.66180358      -1.40627875       0.32994730      -0.00768010      -0.01885673       0.03443349      -4.30109501
Se       7.63968231      20.80690101      16.52841989  T       0.30172910      -1.53267664      -0.65000767       0.01576800      -0.02644382      -0.01165896      -3.22756028
Se       9.95522594      18.74556732      11.05601883  F       0.00000000       0.00000000       0.00000000      -0.01661191      -0.02118332       0.05233017      -4.34183121
Se       9.95522594       7.22817707      11.05601883  F       0.00000000       0.00000000       0.00000000       0.33918703       0.22833225      -0.31425840      -4.54200363
Se       7.02763939      18.74556732       8.12843227  F       0.00000000       0.00000000       0.00000000      -0.31648022       0.49127257      -1.68138433      -4.50918388
Se       6.97437681       7.18995684      13.71114869  T       1.33173092       0.92244675      -1.11423946      -0.00264131       0.00730978       0.01967510      -4.35036278
Se       7.12474823      15.85209751      10.95890999  F       0.00000000       0.00000000       0.00000000       0.60191309      -0.62367857      -0.90201819      -4.43905163
Se       7.12474823       4.33470774      10.95890999  F       0.00000000       0.00000000       0.00000000       0.02498012       0.07079130       0.00031608      -1.94588912
Se       9.85811710      15.85209751       8.22554111  F       0.00000000       0.00000000       0.00000000      -0.64033866      -1.09273338       0.92926651      -4.03543568
Se       9.85743416       4.40893800      14.06866802  T       0.16866144      -0.95867274      -0.19512252       0.01138293      -0.00766915       0.01626824      -4.43503857
Se       7.03216263      13.01641500      13.91145564  T       1.66136998       0.30127335       1.41656041      -0.01365669      -0.02157961      -0.08064286      -4.32997656
Se       7.20654244       1.56024994      14.02561026  T       1.60467634      -0.18373830      -1.46276666      -0.01192155       0.00356092       0.01205761      -4.39856863
Se       9.85811710      12.98687172      10.95890999  F       0.00000000       0.00000000       0.00000000      -0.15673828       0.10054581      -0.51077473      -4.40591526
Se       9.90188244       1.48844870      16.69608297  T      -1.03443416       0.07861109      -0.92879288      -0.01391856       0.00107984      -0.01168108      -4.33238363
Se       9.94320054      10.13698531      13.69850174  T       0.16638938      -1.90341904      -1.82382563      -0.02413134       0.01495818       0.00170758      -4.34409523
Se       9.95522594      21.61079216       8.12843227  F       0.00000000       0.00000000       0.00000000       0.27369988      -0.43317005      -1.62465000      -4.50001717
Se       7.02763939      10.09340286      11.05601883  F       0.00000000       0.00000000       0.00000000      -0.32424188      -0.27271140      -0.32801053      -4.51093245
Se       7.02763939      21.61079216      11.05601883  F       0.00000000       0.00000000       0.00000000       0.01780991      -0.00100710       0.10064593      -4.33395433
O       10.26877797      15.60740051      19.05604690  T       2.44770297       1.96699573       1.47857835      -0.02324779      -0.02010038      -0.05833262      -6.70370102
C        9.70389589      16.08711312      20.28683776  T       0.87730474       1.27530777       0.87953020       0.02461720       0.02559859       0.00663483      -9.67889595
C        9.74933477      14.98916157      21.32658725  T       0.57264836       0.44843362       0.08884818      -0.01155496      -0.00425050       0.00427270      -9.28686142
H       11.08636726      15.00706163      19.32845134  T       0.06370079       0.40058800       0.33581111       0.00114396      -0.00557327       0.01571383      -3.55294752
H       10.32154363      16.94589352      20.59242405  T      -0.06697624      -0.01137446       0.30836428       0.03439833       0.02738357       0.04372118      -3.48024845
H        8.67972941      16.42349800      20.06534512  T       0.01181806       0.09137157       0.15127428      -0.01041624       0.01406673       0.02834451      -3.50646973
H       10.76905482      14.57423285      21.38481239  T       0.14697025      -0.02814865       0.11038617      -0.02721155      -0.00524716       0.02210636      -3.71473241
H        9.06380876      14.17732492      21.04522016  T      -0.11169836       0.06882703      -0.05802853       0.02057667      -0.03294194       0.00320411      -3.66601610
H        9.46119188      15.41031363      22.29940586  T      -0.01861284       0.10628221       0.17850648      -0.02879559      -0.02404661       0.02425647      -3.63809657
