121
Lattice="11.32190990447998 -0.0 -6.999999919513338e-16 -3.700000002833815e-15 23.034778594970703 -5.66095495223999 -0.0 4.2000001634662394e-15 33.96573257446289" Properties=species:S:1:pos:R:3:move_mask:L:1:momenta:R:3:forces:R:3:energies:R:1 adsorbate_info="_JSON {\"site\": {\"coordinates\": [0.04855465776001233, 17.298832415, 16.66841984], \"connectivity\": 2, \"topology\": [52, 80], \"n_vector\": [-0.07107488619247189, -0.43743444741645876, 0.8964370947066975], \"h_vector\": [0.6990815025038742, -0.7146396340649702, -0.023984292368363858], \"site_formula\": {\"Se\": 2}}, \"smiles\": \"S1S\", \"mdf\": 1.138052563669677, \"adsorbate_formula\": \"C2H6O\"}" bond_change_count=0 energy=-608.3973999023438 stress="0.00023365045490209013 2.3465372578357346e-06 -1.4347765500133391e-05 2.3465372578357346e-06 4.95447420689743e-05 -6.791991836507805e-06 -1.4347765500133391e-05 -6.791991836507805e-06 8.074576180661097e-05" free_energy=-608.3973999023438 pbc="T T F"
Cu      -0.26299561      20.48038763      15.06607115  T      -0.83867376       0.85517103       0.69432179      -0.00122424       0.02250051      -0.03018856      -3.65282035
Cu      -0.06207052       8.68348560      15.21471384  T      -0.50854509       0.08512206       0.48794236      -0.00541050       0.01400906      -0.00515580      -4.21796274
Cu       2.81022938      20.17905026      12.45130996  T       1.27352251      -0.49095259       0.50027010       0.00674829      -0.00543330      -0.01902092      -4.17887926
Cu       2.84699384       8.86037064      18.04947287  T       0.29016653       0.58352888       0.03934928       0.01467049       0.00363573       0.00294854      -4.15701532
Cu       2.52663483      13.20164933      17.64997253  T      -2.41485108      -2.30333183      -0.01292299      -0.00237375       0.05241900      -0.05905834      -3.47790861
Cu       2.84336025       2.98395522      18.32557066  T       1.47534896      -0.31447563       0.88754403       0.00344249      -0.00006115      -0.00012082      -4.17829037
Cu       0.05697882      14.35387540      15.11788697  T      -0.20749102       0.45875860       1.30907716      -0.00086786      -0.00852370       0.01146524      -4.18751717
Cu      -0.16989796       2.87845162      20.80957939  T       0.29108135      -1.36620172      -0.88448139      -0.00013099       0.01368623       0.01607712      -3.77584648
Cu       0.00000000      20.17817879       9.59222507  F       0.00000000       0.00000000       0.00000000       0.01090747      -0.01651541       0.13656461      -4.23434353
Cu       0.00000000       8.66078949       9.59222507  F       0.00000000       0.00000000       0.00000000      -0.00569820       0.00123174       0.65037775      -2.34879518
Cu       2.83047748      20.17817879       6.76174784  F       0.00000000       0.00000000       0.00000000      -0.00431370       0.00244012       0.62782443      -3.45613098
Cu       2.80465960       8.62786616      12.41491565  T      -0.29223482      -0.96963633      -0.49841142      -0.00911369       0.00471720      -0.00530775      -4.23659992
Cu       2.90792956      14.51349983      12.33087333  T       0.18230757      -0.63336410       1.08177840       0.01108826       0.00686358       0.00893015      -4.18903780
Cu       2.42716700       3.46403308      12.87739102  T      -0.57598328       2.71053605      -0.81038414       0.01197300      -0.00270481       0.00256002      -3.72525001
Cu       0.00000000      14.41948509       9.59222507  F       0.00000000       0.00000000       0.00000000       0.01682763       0.29094073       0.14833206      -3.68003130
Cu       0.01302291       3.06980111      15.46097161  T       0.46866693       0.48793915       0.30809403      -0.00230794      -0.00056254       0.00659026      -4.22110987
Cu       5.73569589      20.07592052      15.06862502  T      -0.73127989       0.16640906       1.40632523      -0.02665530       0.00064162       0.04889919      -3.97676563
Cu       5.60570904       8.67447515      15.21842932  T       0.63881680      -0.70855218      -0.00343051      -0.01249811       0.00766236      -0.00736713      -4.21630526
Cu       8.47453118      20.17175194      12.35545572  T      -0.13599125       0.85299136      -0.68429066       0.01330694      -0.00687280      -0.00537313      -4.23928642
Cu       8.51564813       8.88883367      18.07253152  T      -0.74325361       0.72254664      -1.17229755       0.01152428       0.02413957      -0.00692569      -4.17200851
Cu       8.19514354      13.32021305      17.63984997  T      -0.69848353      -2.06752015      -1.30186022      -0.00758990      -0.02519507       0.00209910      -3.44087410
Cu       8.53816697       3.01283053      18.30215504  T      -0.41352374       0.16262330      -0.13286218      -0.00537683      -0.00181123       0.00942120      -4.18407726
Cu       5.72666846      14.46241719      15.18332682  T      -0.48952591       0.73481954      -0.31041723       0.00678324      -0.00775218       0.00286328      -4.16135263
Cu       5.49864084       2.88851699      20.77931671  T      -0.73816438      -0.74264282       0.98708062       0.00578742       0.01243937       0.02410506      -3.77040148
Cu       5.66095495      20.17817879       9.59222507  F       0.00000000       0.00000000       0.00000000      -0.00948510      -0.00755061       0.12910517      -4.23407793
Cu       5.66095495       8.66078949       9.59222507  F       0.00000000       0.00000000       0.00000000      -0.00629855       0.00214360       0.65349543      -2.34989476
Cu       8.49143314      20.17817879       6.76174784  F       0.00000000       0.00000000       0.00000000      -0.00453368       0.00234564       0.62767047      -3.45603061
Cu       8.46336905       8.62645952      12.41157893  T      -0.83716639      -1.06634018       0.74271074      -0.00591530      -0.00137633      -0.00667906      -4.23974419
Cu       8.55405622      14.50864873      12.32512980  T       0.21467243       0.66768170       0.21847270       0.02437418       0.00032594      -0.00233715      -4.21746969
Cu       8.09414413       3.45713294      12.86631862  T      -1.84885470       1.85974377      -0.13558968       0.01094992      -0.00088819       0.00251493      -3.71810293
Cu       5.66095495      14.41948509       9.59222507  F       0.00000000       0.00000000       0.00000000       0.01582757       0.28316128       0.13930437      -3.67906189
Cu       5.66825238       3.05561609      15.48708234  T       1.02603168      -0.89666849       0.62273706       0.00159540      -0.00370430       0.00085866      -4.21787453
W       -0.05157653      20.23512862      12.37922624  T       0.04404782       0.58470273      -2.64470785       0.00682475      -0.00549598      -0.00504547     -11.72118759
W        0.05956423       9.05759675      18.07570005  T      -3.14064992       0.55423966       0.82222235       0.01634176       0.02376792       0.00474791     -11.67942810
W        2.88659427      14.26413872      15.16485726  T       0.29514853       1.15786044       0.73589522      -0.02119819       0.01340619      -0.01591553     -11.73105812
W        2.65772064       2.90379967      20.92425134  T      -1.84309893      -1.99776694       1.91558474       0.02853799      -0.01210828      -0.01421541      -9.95429039
W        0.00000000      20.17817879       6.76174784  F       0.00000000       0.00000000       0.00000000       0.04037032      -0.04297454       2.32080841      -7.39568996
W       -0.01866190       8.65879657      12.41578274  T       0.83852095       1.09594327       0.73177168       0.02633904       0.01332518      -0.01136529     -11.74240971
W        2.83047748      14.41948509       9.59222507  F       0.00000000       0.00000000       0.00000000       0.19469610       1.34856439       0.44677618      -9.73584080
W        2.83691769       3.06172166      15.50838110  T       1.78801463      -0.91561838       0.75244430      -0.02056988      -0.01374511      -0.01483116     -11.77093124
W        5.67583446      20.15776579      12.37505108  T      -0.23177120       1.19699775       1.40505633      -0.04265444      -0.04451655       0.00206313     -11.71027756
W        5.70950871       9.01646274      18.07652795  T      -0.86306501       2.10275532       2.89169178       0.01099288       0.02655281       0.01097047     -11.64813042
W        8.53469932      14.30655733      15.14499845  T       1.79839235      -1.36382299      -1.57869815       0.00282208      -0.00706118       0.02333078     -11.63241196
W        8.32139618       2.98262149      20.92591582  T      -1.35020257      -1.53873107      -2.21870791       0.00622377       0.00081921      -0.02186984      -9.93503380
W        5.66095495      20.17817879       6.76174784  F       0.00000000       0.00000000       0.00000000       0.03346030      -0.03851168       2.32178354      -7.39565182
W        5.64328354       8.65831752      12.41663431  T       0.17613234       1.93435074       2.84522466       0.01780017       0.01361403      -0.00547200     -11.74147224
W        8.49143314      14.41948509       9.59222507  F       0.00000000       0.00000000       0.00000000       0.18823889       1.32806873       0.42627659      -9.73734188
W        8.49600436       3.07696626      15.49170961  T      -1.46332055      -1.62042069      -2.12344240      -0.01622842       0.00367812      -0.01761214     -11.77878094
Se       5.13712653      19.20452249      17.27903937  T      -0.35676406       0.92788275      -1.35056296      -0.00664806       0.01684698       0.03875497      -3.41567159
Se       4.38555021       7.41367846      16.90002563  T       0.53411170       1.26663694       0.59404657       0.00058362       0.01726599       0.02724930      -4.35734606
Se       1.21692832      18.96455372      13.95830363  T      -1.52740709       0.63112383      -1.49376395       0.00450653      -0.01989781      -0.02559853      -4.40845776
Se       1.31246920       7.65592783      19.46921227  T      -1.36569789       1.98864749      -1.24574446       0.00766432       0.01155344      -0.00166596      -3.99895406
Se       1.54516243      15.26205156      16.86135100  T       5.39310912      -0.11526314      -1.82642420      -0.00502697      -0.01126125       0.03495388      -4.28258228
Se       1.48643657       4.47774878      16.85649235  T      -0.25089336      -0.92789718       0.14960772       0.01186373      -0.01540593      -0.01360453      -4.30894136
Se       4.13087952      15.94499928      14.04601065  T      -0.87464888       0.44263356       1.65325972       0.01220262      -0.00118881       0.00281224      -4.31779528
Se       3.96954958       4.56085763      19.82078806  T      -0.72390808      -0.82868760       1.27692600      -0.01252399      -0.01870827       0.01312531      -4.33613396
Se       2.07982832      11.52768375      19.22751474  T       1.10362877       0.12691411      -1.16066441       0.00247949      -0.04405721       0.04912860      -3.35768366
Se       1.39568381       1.46866904      19.56640712  T       1.44302756      -0.12378748       2.32459050       0.00869566       0.00394578       0.00734916      -4.43241692
Se       4.34738699      12.70805772      16.23222338  T      -1.11826168      -1.21508178      -0.44688262       0.05281267      -0.02448449       0.00940751      -4.43160248
Se       4.09015114       1.53262796      22.18155434  T      -1.74915320       2.68365937      -1.18392580      -0.02743180       0.01206928      -0.00138968      -4.02391195
Se       4.36491356      10.49200585      19.42529342  T       0.04295147      -0.72182421      -1.67255054       0.01344988      -0.01836535      -0.03596543      -3.91366720
Se       4.35955367      21.57216709      13.77457940  T       0.09700375       0.02338490      -1.48366800       0.00884293       0.00575762       0.02722050      -4.37249327
Se       1.40416634      10.16279905      16.44401504  T      -2.50571896       0.67888724       1.48480425      -0.00484901      -0.01132024      -0.00386254      -4.30909729
Se      -0.82806682      21.03555907      17.28200721  T      -0.52782018      -2.67511001       0.53818227       0.03600913       0.02874516       0.02687039      -3.38704157
Se       4.29427099      18.74556732      11.05601883  F       0.00000000       0.00000000       0.00000000      -0.10854785       0.01119369       0.15725631      -4.33201408
Se       4.29427099       7.22817707      11.05601883  F       0.00000000       0.00000000       0.00000000       0.29386663       0.15185428      -0.38653052      -4.54275894
Se       1.36668432      18.74556732       8.12843227  F       0.00000000       0.00000000       0.00000000      -0.31583044       0.49270517      -1.67429733      -4.50996876
Se       1.30081415       7.22867430      13.75987142  T      -2.26573056      -0.47164120      -1.35064551      -0.00027946      -0.01479369       0.00016257      -4.34434271
Se       1.46379328      15.85209751      10.95890999  F       0.00000000       0.00000000       0.00000000       0.62156838      -0.53582329      -0.91562724      -4.43461847
Se       1.46379328       4.33470774      10.95890999  F       0.00000000       0.00000000       0.00000000       0.03619158       0.05812385       0.02486829      -1.92860270
Se       4.19716167      15.85209751       8.22554111  F       0.00000000       0.00000000       0.00000000      -0.68200970      -1.12362683       0.94144970      -4.04039288
Se       4.15856013       4.50417515      14.15371315  T       1.88264801      -1.12177775       0.01390451      -0.00861813      -0.01474058      -0.00182432      -4.42844725
Se       1.53387050      12.99276677      13.67882510  T       1.82285554       0.15000386       2.26157011      -0.01457301      -0.00306454      -0.01185037      -4.32164192
Se       1.50510557       1.65115785      14.11496345  T       0.07990358       1.99001035       0.19017494       0.01888570       0.03484754       0.00591603      -4.39366817
Se       4.19716167      12.98687172      10.95890999  F       0.00000000       0.00000000       0.00000000      -0.05756531       0.10635044      -0.57080364      -4.41712570
Se       4.19912891       1.58231563      16.78337773  T       0.48679516      -1.02664353      -1.47872423      -0.02503368       0.03379478      -0.00815278      -4.33026171
Se       4.27843441      10.08924411      13.72082933  T       0.14057458      -0.20966741      -0.59086029      -0.00164211       0.00225997      -0.00193503      -4.33158779
Se       4.29427099      21.61079216       8.12843227  F       0.00000000       0.00000000       0.00000000       0.26147738      -0.42061099      -1.61421466      -4.49571705
Se       1.36668432      10.09340286      11.05601883  F       0.00000000       0.00000000       0.00000000      -0.36154017      -0.34374067      -0.29908997      -4.50991964
Se       1.36668432      21.61079216      11.05601883  F       0.00000000       0.00000000       0.00000000       0.06414686       0.00903037       0.07602619      -4.33603764
Se       8.66391573      19.62151487      17.70708189  T      -2.39966292       1.32445726       0.18790890      -0.02723740      -0.00695187      -0.06641901      -3.38213134
Se      10.04768056       7.44923913      16.91437406  T       1.01349832      -0.25231408      -1.00011645      -0.00731389      -0.00353016       0.00918385      -4.34605217
Se       7.04049593      18.66450184      13.64934623  T      -0.60437336       1.73368335       0.19510510      -0.03702737       0.01365591       0.03633286      -4.36084080
Se       6.99608875       7.64861027      19.47377554  T      -0.46166615       2.78137919      -0.95847729      -0.01101711       0.00996879      -0.00477205      -4.01208639
Se       7.30711929      15.44060269      16.87647374  T       0.51269453      -2.41870769      -0.22562786       0.01901126      -0.04997791      -0.04220267      -4.32766581
Se       7.14959900       4.48920096      16.84783928  T       1.16688824       0.63892777      -1.25285060       0.00685703      -0.01270042      -0.01590114      -4.30805779
Se       9.85379105      15.90431810      13.97841344  T      -0.01166907       0.71450035       1.09726705      -0.03533428      -0.03296543       0.02896479      -4.29225826
Se       9.68478016       4.57765710      19.79426590  T      -2.01382360       0.44757073       1.04529893      -0.01044077      -0.02038084       0.01488214      -4.33568144
Se       7.76938113      11.61589434      19.19981895  T       0.46733827       0.59750314      -1.86667145       0.02862984      -0.00063190      -0.01646136      -3.32055950
Se       7.11781338       1.49781256      19.56941856  T      -1.16736874       2.48571554       1.52832665      -0.00276664       0.00003903       0.00587739      -4.43769455
Se       9.94227264      12.67953938      16.18889617  T       1.32047699       1.28278054      -0.26846987      -0.02339088       0.04268689      -0.03664833      -4.43174028
Se       9.69425769       1.68096786      22.30762832  T      -1.47561138       2.60603657      -0.15639089      -0.01355116      -0.01309787      -0.00405417      -4.05105066
Se      10.03274757      10.55465214      19.40277862  T       1.19228742      -0.13667593      -1.70093558      -0.01956823       0.00453478      -0.01658699      -3.90984607
Se       9.87654276      21.81456251      13.51465488  T       0.14685131      -1.06450750      -0.86970658       0.03188011      -0.03084008       0.00898626      -4.42530251
Se       7.04808730      10.16693206      16.47286411  T      -1.40490536      -0.94635345       0.62295913      -0.00987366      -0.00749668       0.02473000      -4.31613207
Se       6.75847255      20.96278801      17.40145938  T      -0.79784386      -0.94454986      -1.19696378      -0.02898178       0.00020396      -0.06377729      -3.47994089
Se       9.95522594      18.74556732      11.05601883  F       0.00000000       0.00000000       0.00000000       0.20076282      -0.01707468       0.18614511      -4.33303261
Se       9.95522594       7.22817707      11.05601883  F       0.00000000       0.00000000       0.00000000       0.29227448       0.14001586      -0.39720601      -4.54313993
Se       7.02763939      18.74556732       8.12843227  F       0.00000000       0.00000000       0.00000000      -0.31446800       0.48902315      -1.67734480      -4.50874329
Se       6.96306935       7.22542986      13.75741922  T      -1.28038797       0.72044410       0.57017924      -0.00142012      -0.01426575       0.00110227      -4.34607792
Se       7.12474823      15.85209751      10.95890999  F       0.00000000       0.00000000       0.00000000       0.60803443      -0.52557242      -0.96375585      -4.43093729
Se       7.12474823       4.33470774      10.95890999  F       0.00000000       0.00000000       0.00000000       0.02264164       0.06930445      -0.00732769      -1.92964661
Se       9.85811710      15.85209751       8.22554111  F       0.00000000       0.00000000       0.00000000      -0.67736024      -1.11895633       0.94191557      -4.03982162
Se       9.82060345       4.51289246      14.13211089  T       0.02992280      -0.97963765       0.01602243      -0.01287657      -0.00973189      -0.00082590      -4.42938995
Se       7.10699831      13.07047185      13.69986908  T      -0.32868153       0.64106227       0.41526548       0.04745011       0.03545558       0.03235383      -4.32835960
Se       7.15921772       1.65794791      14.11258962  T       0.79603206      -0.15838568      -1.77883931       0.00857966       0.02837729       0.00460131      -4.39331913
Se       9.85811710      12.98687172      10.95890999  F       0.00000000       0.00000000       0.00000000      -0.07219487       0.09117338      -0.57401645      -4.41118479
Se       9.86416143       1.60154208      16.75707724  T      -2.62827562      -1.05174130      -0.94954490      -0.00854823       0.02053613      -0.00178089      -4.32432795
Se       9.93475338      10.09130923      13.71395216  T       0.66392763       0.29068033      -0.52575239      -0.00518922       0.01095512       0.00097371      -4.32631397
Se       9.95522594      21.61079216       8.12843227  F       0.00000000       0.00000000       0.00000000       0.25925493      -0.41575396      -1.61367261      -4.49505997
Se       7.02763939      10.09340286      11.05601883  F       0.00000000       0.00000000       0.00000000      -0.37017930      -0.33556256      -0.29436371      -4.50806761
Se       7.02763939      21.61079216      11.05601883  F       0.00000000       0.00000000       0.00000000      -0.14660391       0.12594447      -0.00975132      -4.32337427
O       -1.04767404      17.03132252      18.08707604  T      -2.19528064       0.91966861       1.83237576       0.05843520       0.01325016       0.04155703      -7.65988350
C       -0.78328612      17.86025662      19.09424456  T      -0.93820304       0.11096865       0.31710929       0.01081982      -0.02287875       0.05483204      -7.43936682
C        0.57699776      18.42657717      19.12172754  T      -0.50813711       0.07340472       0.03515170      -0.02599952      -0.02416210       0.01275596      -9.59859943
H        3.91721937      20.05733599      17.61157220  T       0.90570423       2.16731413      -0.67510131      -0.01198584       0.01660442       0.00251961      -3.23250031
H       -1.51564712      17.94883768      19.91076771  T      -0.12155189       0.21857268      -0.15343197       0.04573336      -0.01091563      -0.02120137      -3.75825071
H        0.57865593      19.43946788      18.66048164  T      -0.01753104       0.08966775       0.02578621      -0.03832164      -0.05506298       0.00708764      -3.73772478
H        1.27076029      17.79236452      18.55013356  T       0.12657157       0.15698668      -0.09124499      -0.02667184      -0.01443279       0.01407693      -3.68477130
H        0.92873922      18.50867610      20.16207794  T      -0.26322257      -0.14716197       0.18283771      -0.04555950       0.03908579      -0.01487578      -3.64848304
H       -2.00944511      16.86556104      17.93362326  T       0.24226862      -0.44560226       1.22220191      -0.00762033      -0.04686177      -0.01697356      -3.37821245
