82
Lattice="15.482664108276367 0.0 9.000000350284799e-16 -3.941528797149658 14.972549438476562 -3.978878974914551 0.0 0.0 31.831031799316406" Properties=species:S:1:pos:R:3:move_mask:L:1:momenta:R:3:forces:R:3:energies:R:1 adsorbate_info="_JSON {\"site\": {\"coordinates\": [12.0589695, 0.96779203, 17.2086525], \"connectivity\": 1, \"topology\": [17], \"n_vector\": [0.21955954287948815, 0.8242559561426073, 0.5219154394094762], \"h_vector\": [1.0, 0.0, 0.0], \"site_formula\": {\"Co\": 1}}, \"smiles\": \"Cl\", \"mdf\": 1.7392287869887733, \"adsorbate_formula\": \"HN\"}" bond_change_count=0 energy=-533.8023071289062 stress="0.00029719967278651893 8.051129952946212e-06 -2.08161645787186e-06 8.051129952946212e-06 0.00026277321740053594 -6.091838440624997e-05 -2.08161645787186e-06 -6.091838440624997e-05 5.2041246817680076e-05" free_energy=-533.8023071289062 pbc="T T F"
Co       2.34042888       8.42686508      12.92041156  T       1.32816905      -0.34582654      -1.49841211       0.00170545       0.00584058       0.02632634      -6.57004118
Co      12.14184093       0.96538655      13.10826124  T       0.20925529      -0.20146293       1.10638697      -0.00979265      -0.00856109       0.00635517      -5.68440485
Co       9.69658852      11.82328224      11.24033356  F       0.00000000       0.00000000       0.00000000       0.16586024       0.11652757      -1.06673861      -6.44279099
Co       3.92602110       4.33700800      11.24033356  F       0.00000000       0.00000000       0.00000000      -0.08756121      -0.44311005       0.00190249      -5.54391861
Co      11.70440102      10.55078983      11.24033356  F       0.00000000       0.00000000       0.00000000      -0.06760863       0.36004218      -0.46761727      -5.68440533
Co       5.93383265       3.06451464      11.24033356  F       0.00000000       0.00000000       0.00000000      -0.14999497       0.48237616       0.27229095      -4.98049021
Co      11.03095830       4.83318931      12.86330909  T       0.14075274      -1.57000611      -2.13743960      -0.02277015      -0.00383957       0.00001574      -6.64361572
Co       1.22387576      12.38704586       9.25089359  F       0.00000000       0.00000000       0.00000000       0.17631680       0.57974696       0.34250045      -5.02369499
Co      -0.16326515       4.42176008      11.24033356  F       0.00000000       0.00000000       0.00000000       0.16267559      -0.18799619       0.33599001      -5.25004101
Co       5.60730267      11.90803528      11.24033356  F       0.00000000       0.00000000       0.00000000       0.23738459       0.23996025      -1.08230460      -6.30499887
Co       0.49214391      10.00008509      13.00924127  T       0.15233738      -1.27290996      -1.39142831       0.00909965      -0.00546110       0.00410616      -6.63925076
Co      10.37519662       2.46885592      12.89082320  T       1.31931696      -0.09276519      -0.78706344       0.00206448       0.01921195       0.01704720      -6.21675539
Co       9.17457319       6.44075073      12.86256010  T      -1.32499289       1.48670176      -2.52319410       0.00206272      -0.00485288       0.01904520      -6.60702276
Co      -0.51783448      14.00475788       9.25089359  F       0.00000000       0.00000000       0.00000000      -0.03691815      -0.37747371       0.27074257      -5.37411070
Co       1.84454656       3.14926696      11.24033356  F       0.00000000       0.00000000       0.00000000      -0.01974757       0.89571071      -0.07448214      -5.01761341
Co       7.61511421      10.63554192      11.24033356  F       0.00000000       0.00000000       0.00000000       0.06576732       0.29779449      -0.40105629      -5.78871870
Co       2.49953689       8.47079142      16.77254364  T       2.00890407       1.33490482      -1.45947009      -0.00492372       0.01310217      -0.00814435      -5.42829609
Co      12.21335215       0.98489487      17.31317270  T      -0.41821338      -0.76289637      -1.03010411      -0.00433923      -0.02509637       0.02704650      -6.53101063
Co       9.68614727      11.56681063      15.22338929  T      -0.84260359      -1.26925903       1.80713735      -0.01557064      -0.00820517       0.01645730      -5.89480114
Co       3.94415848       4.40528728      15.24369657  T       0.50628214      -2.00344114       2.30546922      -0.00199758      -0.00072804       0.01833384      -6.63180542
Co      11.60753069      10.30365454      15.28893641  T       0.30060888      -0.98705581       1.74551672       0.02657770      -0.01215699       0.00264370      -6.26509094
Co       6.02464392       3.07460863      15.21240508  T      -0.53515217      -0.21828953       2.06453282       0.00504850      -0.00374895       0.00203192      -6.57181549
Co      10.72530961       4.80183089      16.92632741  T      -0.42003272      -1.22971785      -0.30885854       0.03584969      -0.03837967       0.00016209      -5.67946339
Co       1.36997820      12.39432646      13.16762544  T      -0.07638706       0.98432314       0.80240891      -0.00432803      -0.01651885      -0.00442336      -6.66572189
Co      -0.22345362       4.41233141      15.29866453  T      -0.26343376       1.00186273       1.72295318      -0.00809155       0.00135144       0.00380708      -6.56540680
Co       5.63410343      11.94795342      15.15252156  T      -0.46650038       0.17812365       0.73779815      -0.00088993       0.00395070       0.00866668      -5.74610472
Co       0.56971512       9.72513349      16.76519375  T      -0.77464932      -1.19545678      -1.78160399      -0.00024024       0.00696747      -0.00495295      -5.24358416
Co      10.40534540       2.53105423      17.08516951  T      -0.59040584      -0.35632904       0.30890228       0.02490124       0.01096690       0.00724012      -5.98491287
Co       9.06414572       6.40562500      16.75063805  T       1.28134180       0.24865936       0.13453555      -0.02069224       0.02600989      -0.00338471      -5.52764606
Co      -0.48266606      14.00992770      13.24239425  T      -0.22015172       1.46224962       2.40656274       0.00552172      -0.02693162      -0.02582949      -6.53851128
Co       1.86196891       3.10169054      15.28409489  T      -0.24112703       0.12980265       0.11523149      -0.00929006      -0.02304031       0.00481705      -6.61785889
Co       7.57626254      10.67581343      15.27825493  T       0.25221664      -0.07735121       1.65676278       0.02302122      -0.01007465       0.01135857      -6.46951056
Y        9.60171938       9.67436588      13.17129434  T       1.25167622      -0.88634463       0.06615488      -0.00234350       0.00098936      -0.00013769      -7.47932816
Y        3.74095941       2.04068188      13.16379992  T       0.60833488      -0.03634234      -0.13143419       0.00835466      -0.00145517      -0.00382034      -7.51667213
Y       12.35783672       3.26628304      11.24033356  F       0.00000000       0.00000000       0.00000000       0.36572009      -0.25464362       0.10071491      -6.89736366
Y        2.64574003      10.75255775      11.24033356  F       0.00000000       0.00000000       0.00000000      -0.11948028       0.26563138      -0.12584701      -7.04437971
Y       -2.35488514       9.24990951      13.25601452  T      -0.32257155      -0.08137284       0.52787428      -0.00409951      -0.00373068      -0.00721984      -6.66678524
Y        7.34928001       1.73082698      13.23946358  T      -0.68842184       0.40806117       0.69328488      -0.01019477      -0.00156690      -0.01388277      -6.65026760
Y       13.84634298       5.60093674      13.27287643  T       0.69418131      -1.33378990       0.08059956       0.01200088       0.02038339      -0.00210549      -6.68079853
Y        4.16964054      13.17344666       9.25089359  F       0.00000000       0.00000000       0.00000000      -0.33151609      -0.41613558       0.57334340      -6.10985565
Y       11.14714432       6.98271179      11.24033356  F       0.00000000       0.00000000       0.00000000       0.20922808       0.08863662      -0.17765312      -6.63593960
Y        1.43504775      14.46898651      11.24033356  F       0.00000000       0.00000000       0.00000000       0.13453832      -0.01432749      -0.09300026      -7.27513981
Y       -0.81670117      11.70626640      11.24033356  F       0.00000000       0.00000000       0.00000000      -0.21664378      -0.00605777      -0.20956337      -7.32861805
Y        8.89539528       4.21999168      11.24033356  F       0.00000000       0.00000000       0.00000000      -0.26191902      -0.16463751      -0.02376015      -6.84624577
Y        3.93658876       7.38591671      11.24033356  F       0.00000000       0.00000000       0.00000000      -0.00609058      -0.60193062      -0.24972911      -6.35351992
Y        9.70715618      14.87219143      11.24033356  F       0.00000000       0.00000000       0.00000000      -0.09882389      -0.29437286       0.09660466      -6.61474895
Y        0.39399123       7.98983765      11.24033356  F       0.00000000       0.00000000       0.00000000      -0.22981964      -0.28658336      -0.06154115      -6.71376133
Y       10.23125773       0.42082326      15.18333578  T      -0.49336105       0.03908888      -0.82494867      -0.00631495       0.00753236      -0.00045548      -7.10067844
Y       -0.11409861       2.30042878      13.26611421  T      -1.16963334       1.08623237       2.36241826       0.01466106       0.00594548      -0.00226884      -7.15932512
Y        5.66189387       9.96529920      13.20927676  T       0.70086056       0.96626040       0.36208257      -0.00994331       0.00652685       0.01035280      -7.17906094
Y       11.65617561      12.55751133       9.25089359  F       0.00000000       0.00000000       0.00000000      -0.05011821      -0.24074538       1.22766471      -6.29424858
Y        5.89604259       4.99092558      13.19122135  T       0.24210543       0.14514910       0.89957258       0.00823368      -0.00894153       0.02977289      -7.24092436
Y        7.60454655       7.58663273      11.24033356  F       0.00000000       0.00000000       0.00000000      -0.05581790       0.43052453      -0.35293400      -6.29833508
Y        1.83943531       0.05327238      15.26498829  T       0.10132435      -0.92909722      -0.30241752      -0.01728345      -0.00589048       0.00325745      -6.69726086
Y        1.94096167       5.23467794      13.18878283  T      -0.33206062       0.19985857      -1.15154629      -0.00179499      -0.00830235       0.01059064      -7.53155708
Y        7.75397968      12.78219700       9.25089359  F       0.00000000       0.00000000       0.00000000       0.23746771      -0.17757700       0.91567659      -6.62094212
Y        9.49129496       9.43647030      16.91292025  T       1.50928177       1.70615352      -1.36585663      -0.01221581      -0.00520755       0.01230798      -6.93422937
Y        3.88565485       2.25834273      16.97734355  T       0.28449314      -0.55337706      -0.28395874       0.00420949       0.01090276       0.00883196      -6.82912493
Y       12.30057331       3.10337765      14.96821502  T      -0.53093430      -2.57889448      -0.58220153      -0.01927818      -0.00107002       0.01647355      -7.42877483
Y        2.69820039      10.73440448      14.97254798  T      -0.81942976      -1.37457712      -0.08332668       0.00582650      -0.02375761      -0.00905795      -7.23442698
Y       -2.12314862       9.22327339      16.92864488  T       0.55270797      -0.78010607      -0.74111006      -0.00866464      -0.01245018       0.00997696      -6.29427242
Y        7.63885351       1.96186374      16.99440659  T       1.49153623      -0.71551215       0.08972165       0.01009852      -0.00571808       0.00628655      -6.43371248
Y       13.53260697       5.50285263      16.97351711  T      -1.85622812       2.17160825      -1.75347699      -0.00587635      -0.01808321       0.00144834      -6.32879925
Y        4.19556591      13.20625647      13.00510699  T       0.42430726      -1.68316874      -0.39136641      -0.00294711      -0.00914651      -0.02201211      -6.66056633
Y       11.10813740       6.98575551      14.93926507  T       0.20819692       0.15387913      -0.97245458      -0.00415562      -0.01587339      -0.02304044      -7.17303610
Y        1.53625248      14.35695585      14.90560222  T      -1.20465879       0.13795756      -1.42424493       0.01273652      -0.00264176       0.01762849      -6.53483582
Y       -0.69015037      11.59634129      14.97214372  T       2.01650319      -0.56957001      -0.57496595      -0.00812856      -0.00392310       0.00149351      -6.92673254
Y        8.93612074       4.20595773      14.87286546  T       0.74732694      -1.33788554      -1.33612131       0.00917184       0.00550670      -0.00930423      -7.47924042
Y        3.97807434       7.33783353      14.80271392  T       0.93753145      -1.14798032      -2.66413093      -0.01092021       0.01057422       0.00831289      -6.64730453
Y        9.72229944      14.27244314      15.33289798  T       2.54701060      -3.54425284       0.37160137      -0.02444698       0.01432306       0.02097108      -6.94596291
Y        0.37921251       7.85994049      14.88221279  T       0.22377183      -2.89825806      -0.69942717      -0.00501117      -0.00182793       0.00897428      -7.21029377
Y       10.11544249       0.26771758      18.99838482  T       2.18040581       0.84966549      -1.02742616       0.09104115       0.00478756       0.00871009      -7.12301111
Y       -0.13203073       2.40958238      17.00680441  T      -0.53606014       0.72037813      -1.55638977       0.00117153      -0.00105664       0.01187301      -6.69895363
Y        5.50512982       9.84580943      16.79594392  T      -1.36413489      -0.85758748      -3.78862480       0.00619465      -0.01508912       0.00283320      -6.59681606
Y       11.68964542      12.48559856      13.11257575  T       0.83708793      -1.41240059      -0.41725990      -0.02061978      -0.02189247       0.00229886      -7.16621447
Y        6.06087005       5.22174784      16.84531390  T      -0.57875235       0.15005315      -0.26392565      -0.00981344      -0.02301023       0.00197144      -6.68957186
Y        7.57797403       7.62315201      14.78270773  T      -0.01657772       0.95926821      -0.56193479       0.01670791      -0.01321673       0.00633649      -6.60303497
Y        1.95805265       0.00769190      18.93745094  T       1.15264326       1.29813221      -3.42609791      -0.00494777      -0.00776836       0.01151133      -5.99032450
Y        1.99226835       5.39239792      16.90075427  T       1.54082820       0.59089925      -1.55203893      -0.01442750       0.00670336       0.00466233      -6.91096020
Y        7.74065991      12.73585304      13.03750431  T       1.04796892      -1.88229151      -1.31069496       0.00921593      -0.02571467      -0.00505710      -7.46849632
N       12.23169051       1.07174778      19.15742773  T      -1.37948258       0.50039753       1.03817490      -0.06190117      -0.01199697      -0.00356027      -8.57950974
H       12.46555405       2.03020500      19.40574771  T      -1.13880448      -0.08128810       0.27432665      -0.00012067      -0.03600892       0.00511636      -3.84483528
