37
Lattice="8.014131546020508 0.0 5.000000018137469e-16 1.2000000467046398e-15 7.718464374542236 -2.671377420425415 0.0 0.0 29.385150909423828" Properties=species:S:1:pos:R:3:move_mask:L:1:momenta:R:3:forces:R:3:energies:R:1 adsorbate_info="_JSON {\"site\": {\"coordinates\": [0.0, 0.0, 18.36571884], \"connectivity\": 1, \"topology\": [4], \"n_vector\": [0.10942815347320332, 0.2249850061081286, 0.9681979272101188], \"h_vector\": [1.0, 0.0, 0.0], \"site_formula\": {\"Cr\": 1}}, \"smiles\": \"Cl\", \"mdf\": 1.3756497288606613, \"adsorbate_formula\": \"H\"}" bond_change_count=0 energy=-274.4420166015625 stress="1.6999558283714578e-05 -9.168177257379284e-07 7.690790084780019e-07 -9.168177257379284e-07 0.0005902336561121047 -0.00012516278366092592 7.690790084780019e-07 -0.00012516278366092592 -0.00024312472669407725" free_energy=-274.4420166015625 pbc="T T F"
Cr      -0.01470358      -0.28869278      12.85447024  T       0.36406931      -2.14153355      -0.64986689      -0.02381280       0.06189778       0.05498868      -9.36438370
Cr       0.00000000       3.85923219      10.35158730  F       0.00000000       0.00000000       0.00000000      -0.01541154       0.08557153      -0.06449649      -8.51110172
Cr      -0.02194702       0.02528006      15.71165038  T       0.99424935       1.56719037       0.11813291      -0.00881984      -0.04318830      -0.02629203      -9.28411102
Cr       0.08132509       3.65970018      12.86276406  T       0.32499710      -1.10302426      -0.80603837      -0.04804409       0.01773680       0.07553221      -9.34548187
Cr      -0.28007653      -0.26867421      18.32545322  T      -0.99976401      -1.85052295      -1.62490303      -0.01888829      -0.06594378       0.01431328      -8.17766762
Cr       0.11993201       3.80750098      15.73798130  T      -0.30261630      -0.19991065       0.32266785      -0.05371130      -0.01613325       0.03674643      -8.44070816
Cr       2.66402970      -0.30147620      12.85512889  T      -0.91615510      -3.10599413      -0.14157255       0.05198784       0.01975495      -0.01191476      -9.37212944
Cr       2.67137742       3.85923219      10.35158730  F       0.00000000       0.00000000       0.00000000       0.01034227       0.00750050      -0.06688094      -8.54550552
Cr       2.66206621       0.03874278      15.75740139  T      -0.18794157       0.98265917      -0.09019334       0.00575725      -0.05114958       0.00845254      -9.40348625
Cr       2.66499772       3.77913085      12.96088017  T       0.37036572      -1.29720256      -0.98392390       0.01709858      -0.07812348       0.03546831      -9.28653812
Cr       2.66899289      -0.35540156      18.58272896  T      -0.50769641       1.20771789      -0.29407925       0.01382747       0.00974315       0.05076709      -8.02156162
Cr       2.68783870       3.68977071      15.79461022  T      -0.76923608       1.39145382      -0.67195959       0.00593124       0.03935170      -0.03419226      -8.44104481
Cr       5.36644901      -0.27977132      12.85742865  T       0.12689466      -3.50433226      -2.44310431      -0.02358616      -0.07123279      -0.00610408      -9.36517143
Cr       5.34275484       3.85923219      10.35158730  F       0.00000000       0.00000000       0.00000000       0.00490455       0.09931940      -0.05713022      -8.51090145
Cr       5.36938476       0.03149480      15.70652386  T       0.03536117       0.55616529      -0.44919346       0.00154931      -0.05205895      -0.00119291      -9.29098606
Cr       5.26112141       3.65261240      12.86367824  T      -0.26525458      -0.94622117      -0.16491483       0.03850170       0.04547065       0.07661276      -9.35062885
Cr       5.62492995      -0.27200167      18.32806084  T       1.47932100      -1.45448495       0.42470519       0.00467515      -0.05258022       0.02851176      -8.17390728
Cr       5.20969150       3.80338757      15.72502063  T      -0.23339465       0.16577681       0.80351380       0.03809993      -0.01730716       0.03243263      -8.43339825
Pt       1.33568871       1.92961609      11.68727589  F       0.00000000       0.00000000       0.00000000       0.25911447       0.24840850      -0.11808823      -5.76106644
Pt       1.33568871       5.78884840       9.01589870  F       0.00000000       0.00000000       0.00000000      -0.05922051       0.02217028      -1.12273943      -5.04939032
Pt       1.33832254       1.83682677      14.38746969  T      -0.58338445       0.43528522      -1.33572748      -0.07892921      -0.03938463      -0.01337185      -6.87652540
Pt       1.33568871       5.78884840      11.68727589  F       0.00000000       0.00000000       0.00000000      -0.01857236      -0.19426581       1.17097461      -6.97420979
Pt       1.32640825       1.50017925      17.17048919  T      -0.16235495      -0.55240415       0.97585394       0.02039630       0.02898413       0.02850854      -5.79244089
Pt       1.33288388       5.71494199      14.39663465  T      -0.57198198       0.95945201       2.91522233      -0.01503261      -0.05492594      -0.01501521      -6.56421280
Pt       4.00706577       1.92961609      11.68727589  F       0.00000000       0.00000000       0.00000000      -0.28087205       0.25546560      -0.14322582      -5.75290585
Pt       4.00706577       5.78884840       9.01589870  F       0.00000000       0.00000000       0.00000000       0.06627531       0.09562729      -1.03114653      -5.03488731
Pt       3.99855414       1.81574614      14.38152781  T      -0.11093842      -2.66167175       0.12834812       0.05161653       0.01055552      -0.00239286      -6.88162422
Pt       4.00706577       5.78884840      11.68727589  F       0.00000000       0.00000000       0.00000000       0.01876053      -0.17257854       1.14332414      -6.97054148
Pt       4.00996397       1.49712912      17.16709437  T      -1.42236343      -3.00953627       1.79482999      -0.02677478      -0.00131476       0.02173799      -5.79593039
Pt       4.00600448       5.72125486      14.39469814  T       0.38397678      -0.86108882       1.72232245       0.00377209      -0.03694218      -0.01638889      -6.57420921
Pt       6.67844343       1.92961609      11.68727589  F       0.00000000       0.00000000       0.00000000       0.01801895       0.43707603      -0.14061970      -5.71685982
Pt       6.67844343       5.78884840       9.01589870  F       0.00000000       0.00000000       0.00000000      -0.01050471       0.02273756      -1.18669331      -5.06742764
Pt       6.67441008       1.94534301      14.36827596  T       0.23138325       0.77460713      -0.01399707       0.03728605      -0.04716052       0.07109323      -6.88287687
Pt       6.67844343       5.78884840      11.68727589  F       0.00000000       0.00000000       0.00000000      -0.00985015      -0.54573601       1.14212871      -6.96651459
Pt       6.67363915       1.69650908      17.07336027  T      -0.77457844      -3.24284841       0.19916931       0.01874979       0.05827862       0.07351397      -5.78472853
Pt       6.67518207       5.51789072      14.36053614  T       0.58897350       3.44943474       0.41110923       0.01858238       0.01640907      -0.03694314      -6.73372650
H       -1.33174889      -0.03069687      19.63903971  T      -0.47775931       0.19919864      -0.72928203      -0.01321726      -0.04203354       0.02972221      -3.94317293
