37
Lattice="8.014131546020508 0.0 5.000000018137469e-16 1.2000000467046398e-15 7.718464374542236 -2.671377420425415 0.0 0.0 29.385150909423828" Properties=species:S:1:pos:R:3:move_mask:L:1:momenta:R:3:forces:R:3:energies:R:1 adsorbate_info="_JSON {\"site\": {\"coordinates\": [4.007066010000003, 0.6432053633333344, 17.92048962666667], \"connectivity\": 3, \"topology\": [10, 16, 28], \"n_vector\": [-0.00549368460586745, 0.4962892968577933, 0.8681398235617627], \"h_vector\": [-1.0, 0.0, 0.0], \"site_formula\": {\"Cr\": 2, \"Pt\": 1}}, \"smiles\": \"S1S\", \"mdf\": 1.8044321480010117, \"adsorbate_formula\": \"H\"}" bond_change_count=0 energy=-274.19232177734375 stress="-7.204279972938821e-05 1.162678245236748e-06 1.63989327006675e-07 1.162678245236748e-06 0.0006573260761797428 -0.00018552418623585254 1.63989327006675e-07 -0.00018552418623585254 -0.00020024340483359993" free_energy=-274.19232177734375 pbc="T T F"
Cr       0.00319702      -0.29124230      12.86457076  T       0.36394830      -2.13540246      -0.64125235      -0.00394898      -0.04774834      -0.01843631      -9.36887074
Cr       0.00000000       3.85923219      10.35158730  F       0.00000000       0.00000000       0.00000000       0.00440671       0.16102067      -0.08273840      -8.52609253
Cr       0.00768231      -0.02574926      15.78231316  T       1.13947097       1.60993736       0.13373056      -0.00320339       0.00626653      -0.01848424      -9.36189556
Cr      -0.00248053       3.62411048      12.92218808  T       0.32038929      -1.09294823      -0.80012519      -0.00331655       0.02374255       0.04339413      -9.35906219
Cr       0.00704194      -0.41434836      18.70714926  T      -0.08034688      -1.21454289      -1.01595023       0.00430459      -0.03491823       0.04305763      -7.94299603
Cr      -0.00380316       3.75926659      15.77459352  T      -0.33987155      -0.10834752       0.35189045      -0.01596696       0.02080071      -0.03620172      -8.43376637
Cr       2.66868139      -0.28995481      12.86748231  T      -0.92178625      -3.10216482      -0.14426344       0.01114484      -0.02296630       0.00636277      -9.37356091
Cr       2.67137742       3.85923219      10.35158730  F       0.00000000       0.00000000       0.00000000       0.03371570       0.07686399      -0.05186021      -8.52179146
Cr       2.70499239      -0.02502653      15.78083797  T      -0.46675278       0.89158392      -0.01454614      -0.02477879      -0.00616213      -0.00861257      -9.30833912
Cr       2.63396131       3.66570837      12.90056544  T       0.36863914      -1.30519937      -0.98723741       0.01141947       0.01553549       0.03452073      -9.32388210
Cr       2.71100294      -0.38030342      18.29059436  T      -1.13733272       0.72749215      -0.79004350      -0.03171034       0.01697959      -0.02299501      -7.93436527
Cr       2.60584393       3.69031849      15.84636614  T      -0.84091152       1.36490203      -0.60876101      -0.02064756       0.00054327      -0.01221823      -8.51061630
Cr       5.34440800      -0.29531463      12.85956151  T       0.13329223      -3.49993782      -2.44373435      -0.01003094       0.02618502       0.04937291      -9.37056923
Cr       5.34275484       3.85923219      10.35158730  F       0.00000000       0.00000000       0.00000000      -0.03619052       0.08305605      -0.05309623      -8.52113247
Cr       5.30925184      -0.03070662      15.77989826  T       0.24134721       0.47023256      -0.49269275       0.00547117       0.01490870      -0.00590580      -9.30585098
Cr       5.38093740       3.65725316      12.90038904  T      -0.25943368      -0.95346206      -0.16096338      -0.00488095       0.03727905       0.04089073      -9.33090878
Cr       5.31007723      -0.37521656      18.31547392  T       0.83214427      -1.84675348      -0.18777072       0.01536745      -0.00975120      -0.02602898      -7.93362427
Cr       5.42058607       3.69316745      15.82631865  T      -0.12661177       0.19129357       0.86534092       0.02658032       0.00182173       0.00651889      -8.50669575
Pt       1.33568871       1.92961609      11.68727589  F       0.00000000       0.00000000       0.00000000      -0.02655490       0.13017982      -0.10553110      -5.77980947
Pt       1.33568871       5.78884840       9.01589870  F       0.00000000       0.00000000       0.00000000       0.01722537       0.06298073      -1.09388423      -5.04609537
Pt       1.32902901       1.81450475      14.40799087  T      -0.62673542       0.40444425      -1.30027229       0.04785226       0.01555251       0.04546096      -6.86068916
Pt       1.33568871       5.78884840      11.68727589  F       0.00000000       0.00000000       0.00000000       0.01530999      -0.38473549       1.11992335      -6.97371912
Pt       1.31903003       1.48350957      17.18296974  T      -0.31861166      -0.99890299       1.01414539       0.04168723      -0.00673151      -0.00964518      -5.85861015
Pt       1.32720702       5.62918288      14.37055147  T      -0.52720649       0.89137884       2.66407241      -0.00089587       0.02661803       0.00267565      -6.64681625
Pt       4.00706577       1.92961609      11.68727589  F       0.00000000       0.00000000       0.00000000       0.00116222       0.36870661      -0.02496719      -5.74383116
Pt       4.00706577       5.78884840       9.01589870  F       0.00000000       0.00000000       0.00000000      -0.02753095       0.06561577      -1.10829163      -5.04571867
Pt       4.00461869       1.87074029      14.39429055  T      -0.10324985      -2.68148755       0.09337318      -0.01205085       0.04695723       0.07935920      -6.86676216
Pt       4.00706577       5.78884840      11.68727589  F       0.00000000       0.00000000       0.00000000      -0.00357569      -0.51980579       1.25488877      -6.97971153
Pt       4.00802678       1.62397337      17.16714590  T      -1.44721643      -2.63886868       1.66005328       0.00531540       0.03061628       0.01877430      -6.02733517
Pt       4.00819010       5.50969846      14.40034342  T       0.37603068      -0.79448144       1.84145445      -0.01779067      -0.01087368      -0.00468755      -6.65205383
Pt       6.67844343       1.92961609      11.68727589  F       0.00000000       0.00000000       0.00000000       0.02631995       0.09442025      -0.13148050      -5.78319883
Pt       6.67844343       5.78884840       9.01589870  F       0.00000000       0.00000000       0.00000000       0.01263078       0.04723317      -1.11127698      -5.04648685
Pt       6.67842917       1.79933002      14.40583327  T       0.27119375       0.73412842       0.02230639      -0.02144436       0.01873123       0.02972217      -6.86081409
Pt       6.67844343       5.78884840      11.68727589  F       0.00000000       0.00000000       0.00000000      -0.01251829      -0.36485726       1.13253963      -6.97342587
Pt       6.69416293       1.47880070      17.17644393  T      -0.77300483      -3.20028475       0.11958402      -0.03383838      -0.01145238       0.01786366      -5.86653805
Pt       6.68398652       5.64557785      14.37293888  T       0.40895290       3.04913677       0.17712599       0.02615337       0.01372311      -0.00901705      -6.65084982
H        3.99331200       1.02299422      18.80936310  T       0.12602125       0.96535451       0.08628036       0.00480802       0.01366384       0.01003414      -3.59578180
