48
Lattice="8.838089942932129 0.0 -5.102673530578613 3.099999979481495e-15 19.10738754272461 1.2000000467046398e-15 0.0 0.0 40.821388244628906" Properties=species:S:1:pos:R:3:move_mask:L:1:momenta:R:3:forces:R:3:energies:R:1 adsorbate_info="_JSON {\"site\": {\"coordinates\": [0.677086, 4.57277441, 20.55078125], \"connectivity\": 1, \"topology\": [1], \"n_vector\": [0.5947543576277293, -0.20798558318448934, 0.7765367031056772], \"h_vector\": [1.0, 0.0, 0.0], \"site_formula\": {\"Sr\": 1}}, \"smiles\": \"Cl\", \"mdf\": 1.7279160645690992, \"adsorbate_formula\": \"HN2\"}" bond_change_count=0 energy=-120.34846496582031 stress="0.00010228889004793018 -1.159571638709167e-05 -3.9891372580314055e-05 -1.159571638709167e-05 0.00011292216368019581 1.276481543754926e-05 -3.9891372580314055e-05 1.276481543754926e-05 5.18520682817325e-05" free_energy=-120.34846496582031 pbc="T T F"
Sr       4.73549264       4.40193553      20.75898720  T      -0.30954164      -1.47037908       0.31478738       0.00352609       0.03080788      -0.03815950      -3.15162134
Sr       0.86900208       4.45801577      20.47437378  T      -3.80983666       1.59678979      -8.72209591      -0.02294922       0.04014732       0.01879257      -3.68533897
Sr       2.88122512       4.53263500      16.74154065  T      -0.90066167      -0.23639858       0.70134400      -0.00802505       0.02545276      -0.00568645      -2.88843346
Sr       6.63581703       1.72173136      17.95004667  T      -2.26861440       1.04537361       2.13820488       0.02366152       0.01107889      -0.00796676      -2.54504633
Sr       2.54321949       2.16375354      23.29666063  T      -0.32830064      -5.33378628       4.45213076       0.02555645      -0.06650198       0.03218228      -3.65188932
Sr       8.70874596       1.79635477      11.73008633  F       0.00000000       0.00000000       0.00000000      -0.02570672      -0.07262483      -0.05648274      -1.97149181
Sr       5.89206028       3.18456459      14.28748608  F       0.00000000       0.00000000       0.00000000      -0.25309396       0.17505792      -0.21582428      -2.44539881
Sr       5.89206028      18.36384964      14.28748608  F       0.00000000       0.00000000       0.00000000       0.07902817      -0.16099039      -0.14378744      -2.25582099
Sr       5.89206028       7.11266756      14.28748608  F       0.00000000       0.00000000       0.00000000      -0.08402234       0.06309423      -0.37126485      -2.55631065
Sr       8.03166008      10.94190311      15.67213917  F       0.00000000       0.00000000       0.00000000      -0.24594349      -0.12961447      -0.36498931      -2.67681551
Sr       3.62311602      10.94190311      15.44810772  F       0.00000000       0.00000000       0.00000000      -0.23002547       0.02602128      -0.03558715      -2.29484653
Sr       6.02140427      10.94190311      11.74221230  F       0.00000000       0.00000000       0.00000000       0.24579392       0.11817663       0.28693220      -1.20221210
Sr       0.64047505       8.28413700      17.62694476  T      -1.97396642       0.62781714      -1.04988506      -0.01773964       0.00946480       0.01222824      -2.31800628
Sr       4.93456949       8.12962470      18.00648350  T      -0.26829296      -0.45653263      -1.02639503       0.02909143      -0.01308834       0.00000278      -2.59593964
Sr       2.74871027       8.33562699      21.68139544  T      -0.63661473      -0.15118262      -1.61721869      -0.00960563      -0.02273647       0.00910782      -1.97738314
Sr      -0.34524574       9.49449134      24.53107107  T       0.00404560       0.50493152       0.03409570      -0.01869759       0.01626399       0.03119982      -2.18843222
Sr       0.07100613       5.41576611      24.22984144  T       0.69437249      -0.79429391      -0.28420201      -0.00806208      -0.00122839      -0.00610061      -2.84662008
Sr      -0.05483492      13.59413258      24.29509620  T       0.05883215       1.14593979       0.63129168      -0.00885706      -0.00780005       0.00105934      -2.15209270
Sr       2.13959980      17.31103325      15.67213917  F       0.00000000       0.00000000       0.00000000      -0.07584959      -0.05122408       0.16335672      -2.20990229
Sr       6.49269956      17.20514239      20.36971587  T       1.27798865      -0.51775063      -0.53712089      -0.00912196       0.01037719       0.00386461      -2.16061640
Sr       0.19180542      17.34109380      21.96774394  T      -1.34410034       0.34560953      -0.49586809      -0.01694506      -0.00003569       0.00547556      -2.45055747
Sr       3.75246048      14.53461266      12.90283394  F       0.00000000       0.00000000       0.00000000       0.04217299      -0.15099996       0.27998361      -1.10644960
Sr       8.16100407      14.53461266      13.12686539  F       0.00000000       0.00000000       0.00000000       0.04656841       0.13796988      -0.22624519      -2.36181116
Sr       5.67585901      14.60852548      16.52941356  T      -1.47880287       0.82550097      -0.32004296       0.00765186       0.00135066       0.01458584      -2.63963079
Sr       2.91306295      15.88355043      19.43927670  T       0.82381772      -0.69647631       0.64427518       0.00399246       0.00270574      -0.01286457      -2.68982697
Sr       3.01512289      11.93125785      19.54585076  T       0.91100008      -1.80632066       2.15223530      -0.00020306      -0.00717785      -0.00189627      -2.75696206
Sr       2.86822329       0.97374154      19.07647016  T       0.17383106      -2.36913265       1.31473397      -0.06385016       0.03138844      -0.05314741      -3.00524807
Ag       8.06297779       5.15946722      12.40035057  F       0.00000000       0.00000000       0.00000000       0.15306261      -0.12894210       0.17053644      -1.83126199
Ag       6.35940267       5.08702678      16.99661931  T      -0.96450172      -0.54696600       2.42635739      -0.01758324      -0.02520002       0.01724645      -2.18412781
Ag       3.17229390       5.15946722      13.35098457  F       0.00000000       0.00000000       0.00000000       0.26840454       0.27042589       0.47942948      -1.39389062
Ag       3.57821652       1.31110945      15.87921017  T      -1.49711548       0.43608359       0.45180484       0.01201952      -0.01594192       0.04351695      -2.07055736
Ag       5.33354145       1.16655790      21.10397811  T       1.00268114       1.50735703       0.94803338       0.00315910      -0.04136661       0.02249127      -1.87280357
Ag       8.61182594       1.20966172      15.22398853  F       0.00000000       0.00000000       0.00000000      -0.19316325      -0.01132050      -0.16887575      -2.21546841
Ag       1.71725982      11.34059872      22.61996268  T      -1.18327663      -1.67115920      -0.80088838       0.05604852       0.01245129       0.02711985      -1.83829737
Ag       0.52241408      11.57570464      17.28536735  T      -0.12903296       0.39774348      -0.28914051       0.00466900      -0.00400306       0.00262973      -2.01993632
Ag       6.00066846      11.51711965      18.24202070  T      -0.24095898      -0.43398868       0.69105731       0.03165642      -0.00661341       0.01918724      -2.19226646
Ag       6.23951954       7.37844534      20.81375622  T      -1.17015306      -0.80194009       0.94375038      -0.00638041      -0.02259394      -0.01882147      -1.61538553
Ag       8.25608630       7.61481935      16.58023220  T       0.30137760       0.99697586      -1.54578247       0.01478240      -0.00175235       0.01772569      -2.17605901
Ag       2.71976614       7.57879066      15.22398853  F       0.00000000       0.00000000       0.00000000       0.27643228      -0.08777774       0.02016791      -1.90403891
Ag       5.13994132      17.80074794      17.38341603  T      -0.57955852      -1.73993904       2.49989568       0.00281136       0.00782492       0.02567663      -2.21095204
Ag       3.53048344      18.21688311      21.72379694  T       0.02684000      -1.10012500      -1.28833436       0.03338037       0.01623195       0.00686036      -1.89951265
Ag       0.25135676      17.88118318      18.45631156  T       0.71104155      -1.48018807      -0.68306375       0.01194435      -0.01001592       0.02894691      -2.16472054
Ag       0.71685196      14.03574065      21.20971902  T      -1.20797259       1.38111732       0.58294623      -0.00698685      -0.01904574      -0.00079513      -2.15307403
Ag       2.32504453      13.94992269      16.36973370  T      -1.94811661      -1.03743781      -1.16351261      -0.01097255      -0.00215132       0.00383820      -2.11066103
Ag       5.64603808      14.02375914      19.73889992  T      -0.13026181      -0.77505329      -1.50536056       0.01853496      -0.01292628      -0.01429904      -1.94649184
N        1.74048713       4.39673390      22.91281845  T       1.70620305       0.46197310       8.48895859      -0.01967428       0.01548600      -0.01016824      -7.22977972
N        2.79871841       4.21455171      22.14013460  T       1.71394814       4.99556226      -1.52827129       0.02003193       0.05784309      -0.00236779      -7.30590916
H        2.93268724       3.55594708      19.10230498  T       0.72481103       0.60325710      -2.08773450      -0.06052199      -0.00594740       0.01118532      -3.22856688
