48
Lattice="8.838089942932129 0.0 -5.102673530578613 3.099999979481495e-15 19.10738754272461 1.2000000467046398e-15 0.0 0.0 40.821388244628906" Properties=species:S:1:pos:R:3:move_mask:L:1:momenta:R:3:forces:R:3:energies:R:1 adsorbate_info="_JSON {\"site\": {\"coordinates\": [4.7419292949999985, 7.872137064999999, 21.606365204999996], \"connectivity\": 2, \"topology\": [14, 36], \"n_vector\": [0.34666482514397795, 0.17175751119900598, 0.9221295225480087], \"h_vector\": [0.9747723346405722, -0.1485245596102228, -0.16661137659823103], \"site_formula\": {\"Sr\": 1, \"Ag\": 1}}, \"smiles\": \"S1S\", \"mdf\": 0.6438375113756944, \"adsorbate_formula\": \"HN2\"}" bond_change_count=0 energy=-118.12530517578125 stress="8.001313108252361e-05 -8.197843271773309e-06 -2.689600660232827e-05 -8.197843271773309e-06 0.0001055403336067684 1.662142858549487e-05 -2.689600660232827e-05 1.662142858549487e-05 4.213881038594991e-05" free_energy=-118.12530517578125 pbc="T T F"
Sr       4.98314809       4.71573747      21.42967051  T      -0.53908947      -1.83554872       0.80666272      -0.01432616       0.00551921      -0.05338845      -2.99810743
Sr       0.56969784       4.70035116      20.43027669  T      -0.27074131       0.43179056      -0.39231603      -0.00467349       0.00559004      -0.03025007      -2.38663745
Sr       2.85158230       4.61508936      16.63913137  T      -1.95656453       0.86629607       1.48619107      -0.00856660      -0.00905848       0.00909042      -2.60576868
Sr       6.66233180       1.88072525      18.05100199  T       0.60561362      -0.66327051      -1.04694698      -0.00368462      -0.01636472      -0.00518821      -2.54056025
Sr       2.10113412       1.82801211      22.94161540  T      -0.75499512       0.51222768       0.60993021       0.01352035      -0.01310667       0.01320863      -1.81632733
Sr       8.70874596       1.79635477      11.73008633  F       0.00000000       0.00000000       0.00000000      -0.01688950      -0.04395909      -0.01334242      -1.94920492
Sr       5.89206028       3.18456459      14.28748608  F       0.00000000       0.00000000       0.00000000      -0.33421606       0.08810327      -0.26756299      -2.46374750
Sr       5.89206028      18.36384964      14.28748608  F       0.00000000       0.00000000       0.00000000       0.07721472      -0.15606609      -0.12887159      -2.25324249
Sr       5.89206028       7.11266756      14.28748608  F       0.00000000       0.00000000       0.00000000      -0.05539136       0.09653217      -0.35367638      -2.58404303
Sr       8.03166008      10.94190311      15.67213917  F       0.00000000       0.00000000       0.00000000      -0.25546223      -0.07430840      -0.33324137      -2.67813802
Sr       3.62311602      10.94190311      15.44810772  F       0.00000000       0.00000000       0.00000000      -0.20503628      -0.00098056      -0.00377026      -2.28447938
Sr       6.02140427      10.94190311      11.74221230  F       0.00000000       0.00000000       0.00000000       0.23966549       0.12606630       0.28747055      -1.20410967
Sr       0.62812353       8.29337007      17.57689710  T       1.41458417       1.71520495      -1.22094748      -0.01179757       0.00040978       0.01308572      -2.28895402
Sr       5.09065765       8.12196727      18.06117133  T      -0.10337501       0.09141603       0.41516572       0.00941920      -0.00176494       0.00673746      -2.58765841
Sr       2.95659958       8.35023029      22.14617085  T      -2.22847889       1.27180477      -4.26860683       0.00139213      -0.00014195       0.01750405      -3.79737329
Sr      -0.29366033       9.71046786      24.62853533  T       0.55993523       0.51398636       0.38994565      -0.03786761      -0.03865699       0.00691015      -2.17105031
Sr      -0.27959855       5.59042157      24.33256883  T       0.97917620      -1.32868809       0.39482645       0.03731424      -0.00045867      -0.02709942      -1.93315744
Sr      -0.05812219      13.74063873      24.36584843  T       0.89446861      -0.53540381      -0.24509107      -0.01548305       0.02315758      -0.00787605      -2.12707496
Sr       2.13959980      17.31103325      15.67213917  F       0.00000000       0.00000000       0.00000000      -0.05697452      -0.05639166       0.18988031      -2.20463061
Sr       6.42912064      17.32872116      20.40706265  T      -0.34609885      -0.80910391       2.76358152      -0.00990386      -0.01382758       0.00645473      -2.15799856
Sr       0.14462969      17.34070073      21.99253515  T      -0.81585502       1.41947029      -0.05264269      -0.02970146      -0.00332184       0.00080764      -2.48197532
Sr       3.75246048      14.53461266      12.90283394  F       0.00000000       0.00000000       0.00000000       0.04760778      -0.15093580       0.28576964      -1.09712791
Sr       8.16100407      14.53461266      13.12686539  F       0.00000000       0.00000000       0.00000000       0.02844169       0.11047715      -0.19442990      -2.36620784
Sr       5.65966637      14.62028048      16.54791017  T      -0.14315512      -0.48463088       0.07487052       0.00238293      -0.00053877       0.02785602      -2.63758993
Sr       2.89394887      15.86057201      19.48266464  T       0.02676191       0.82918539      -1.06136493       0.01847732      -0.01593306      -0.02289057      -2.67902279
Sr       3.04188775      11.93420796      19.51097682  T       2.88385292       0.56791180      -1.58375852      -0.01882973      -0.01322855       0.00543717      -2.73712873
Sr       2.85896443       0.81062592      19.08453278  T      -0.49857710       1.05559112       1.41738935      -0.03516262       0.00802608      -0.07968722      -2.81436753
Ag       8.06297779       5.15946722      12.40035057  F       0.00000000       0.00000000       0.00000000       0.17314759      -0.10632206       0.08153582      -1.84335828
Ag       6.32213148       5.08472955      16.92734319  T      -0.37887346       0.73626594      -0.35335766      -0.00462199      -0.01180625       0.01708777      -2.18291068
Ag       3.17229390       5.15946722      13.35098457  F       0.00000000       0.00000000       0.00000000       0.24124524       0.26115251       0.43942684      -1.39917266
Ag       3.62932713       1.32836298      15.95263009  T       0.33028752      -1.02154579      -0.99120298      -0.02010049       0.00348823       0.01874992      -2.06874371
Ag       5.14034055       1.32950328      21.26679197  T      -3.04976223       0.04681105      -0.85962720       0.00993834      -0.02869937       0.03197804      -1.86562550
Ag       8.61182594       1.20966172      15.22398853  F       0.00000000       0.00000000       0.00000000      -0.09943047       0.14890465       0.00685435      -2.26355863
Ag       1.69586417      11.60174614      22.62190869  T      -1.51795110       0.14245819       0.04118054       0.02078933      -0.01640433       0.00549608      -1.86164665
Ag       0.51867881      11.57032548      17.31693573  T      -1.51364309       2.35211454      -0.10808137      -0.00267260      -0.00154899      -0.00983866      -2.02613544
Ag       6.04544503      11.57408903      18.27947890  T       0.63039518       1.14903919      -0.10433534       0.00961139      -0.00027889      -0.00577589      -2.18442178
Ag       6.58026322       7.50617017      20.82353952  T       0.89072206       0.22942881      -2.87387083      -0.00283621       0.01825661      -0.02766763      -2.06344247
Ag       8.26892515       7.71440088      16.66850507  T      -0.14438773      -0.47350451      -0.22060895       0.00904619      -0.00833650       0.00080223      -2.15808105
Ag       2.71976614       7.57879066      15.22398853  F       0.00000000       0.00000000       0.00000000       0.29020521      -0.02457272       0.00114848      -1.89987564
Ag       5.14594267      17.84592099      17.40014809  T       1.17302085       1.02024913      -0.48771945      -0.00371199       0.00591287       0.00633459      -2.21644878
Ag       3.50368631      18.19862749      21.77656782  T      -0.33769663      -0.41983210       0.16388644       0.00716112      -0.00954969       0.03125974      -1.92441106
Ag       0.23811527      17.83071887      18.45208404  T       0.85717509       0.00248168       1.46738789       0.00157449       0.00581106       0.00312514      -2.15961552
Ag       0.72147238      14.00522512      21.22940302  T       0.63706236      -1.17216795      -1.00394098      -0.00864366      -0.01328560       0.01791452      -2.19223690
Ag       2.32753194      13.94240810      16.40814185  T       1.26286184       1.14709852       0.49696614      -0.00681074      -0.00167959      -0.00679691      -2.11230135
Ag       5.64776937      14.06618263      19.78349596  T       2.06918704       1.90653989      -0.69169828       0.00649550       0.01157941      -0.02808300      -1.94730520
N        5.03642823       6.92129389      22.27584900  T      -1.59832042       0.44227408       0.31176947      -0.00087080      -0.07137775       0.01584516      -6.82913542
N        4.91624805       7.71535986      23.33022220  T       3.06243143      -2.09524858       3.77259507       0.00102234      -0.00288346       0.02630000      -7.79605627
H        5.71481869       7.66500486      23.96360392  T       1.74223580       0.99704198      -0.32108621       0.01799315      -0.01319796       0.02536575      -3.28511429
