48
Lattice="8.838089942932129 0.0 -5.102673530578613 3.099999979481495e-15 19.10738754272461 1.2000000467046398e-15 0.0 0.0 40.821388244628906" Properties=species:S:1:pos:R:3:move_mask:L:1:momenta:R:3:forces:R:3:energies:R:1 adsorbate_info="_JSON {\"site\": {\"coordinates\": [2.9460301399999995, 13.95877123, 19.390159609999998], \"connectivity\": 2, \"topology\": [24, 25], \"n_vector\": [0.25779280079311884, 0.0787733101508769, 0.9629837160965461], \"h_vector\": [0.0, 1.0, 0.0], \"site_formula\": {\"Sr\": 2}}, \"smiles\": \"S1S\", \"mdf\": 0.6429197691747559, \"adsorbate_formula\": \"HN2\"}" bond_change_count=1 energy=-117.33960723876953 stress="8.391009760089219e-05 -2.459571760482504e-06 -3.3938096748897806e-05 -2.459571760482504e-06 9.359091200167313e-05 8.314531442010775e-06 -3.3938096748897806e-05 8.314531442010775e-06 4.36092923337128e-05" free_energy=-117.33960723876953 pbc="T T F"
Sr       4.80496069       4.57594904      20.46688144  T      -0.73105082      -0.20277337       0.45789652      -0.00251624      -0.01474938       0.01809599      -2.13960433
Sr       0.54131932       4.73448625      20.41851526  T       1.66453025       0.90033738       2.42450833       0.00261554       0.00232273       0.00779571      -2.39596581
Sr       2.73704861       4.59550450      16.57020985  T      -1.23710468       1.02482286      -0.27838196       0.01207262       0.00384979       0.00901499      -2.65590978
Sr       6.71586980       1.80102375      18.01386363  T       2.77569728      -0.68146104      -0.42747980       0.00203586      -0.00150747       0.00580108      -2.55595827
Sr       2.23882749       1.94495328      22.83757317  T      -0.64823720      -2.22129046      -1.34975852      -0.00730227      -0.01026022       0.00583768      -1.82639670
Sr       8.70874596       1.79635477      11.73008633  F       0.00000000       0.00000000       0.00000000      -0.08555025      -0.10260461      -0.00874163      -1.94585299
Sr       5.89206028       3.18456459      14.28748608  F       0.00000000       0.00000000       0.00000000      -0.37194452       0.10029207      -0.20716232      -2.45589757
Sr       5.89206028      18.36384964      14.28748608  F       0.00000000       0.00000000       0.00000000       0.06056730      -0.18603803      -0.14885721      -2.25274539
Sr       5.89206028       7.11266756      14.28748608  F       0.00000000       0.00000000       0.00000000      -0.06496236       0.03808662      -0.32730368      -2.55502343
Sr       8.03166008      10.94190311      15.67213917  F       0.00000000       0.00000000       0.00000000      -0.05217528      -0.03273948      -0.28322750      -2.67631245
Sr       3.62311602      10.94190311      15.44810772  F       0.00000000       0.00000000       0.00000000      -0.19771296       0.01537068      -0.09088279      -2.26128268
Sr       6.02140427      10.94190311      11.74221230  F       0.00000000       0.00000000       0.00000000       0.25800520       0.13548157       0.29790303      -1.18977070
Sr       0.61609798       8.27996428      17.63268146  T       0.67092139      -0.71327260      -0.51562030       0.00388405       0.00232842      -0.00382340      -2.32941937
Sr       5.03136473       8.10133511      17.97343494  T       0.15215771       0.55435575       0.97090117      -0.01059211      -0.01586503       0.00643834      -2.59122634
Sr       2.74946851       8.16795914      21.85874483  T      -1.09701459      -1.56279709       0.87208473       0.00789255       0.01997487       0.01462910      -1.97746444
Sr      -0.29531784       9.67790993      24.55198128  T       0.27529704      -0.27424949       1.24672448       0.02165014       0.00057221      -0.01164589      -2.16503286
Sr      -0.25985460       5.67674352      24.29266027  T      -0.34547667       0.95919707      -0.05691641      -0.01564054      -0.01493451       0.01982786      -1.92851830
Sr      -0.10095891      13.70393767      24.44057697  T       1.35413758       2.08104790      -0.37216349       0.02196896      -0.02185814      -0.01314714      -2.12658763
Sr       2.13959980      17.31103325      15.67213917  F       0.00000000       0.00000000       0.00000000      -0.05293785      -0.13783219       0.26207614      -2.21968222
Sr       6.41448523      17.32217735      20.40527493  T      -1.34840638       0.27338378       0.81913149      -0.00936728      -0.01442314       0.02381672      -2.17286110
Sr       0.07454961      17.43854467      22.07873752  T      -2.02940376      -1.18759947      -1.68460050      -0.00508707       0.01840664      -0.01188833      -2.47658539
Sr       3.75246048      14.53461266      12.90283394  F       0.00000000       0.00000000       0.00000000       0.06259340      -0.15600210       0.33815354      -1.13224649
Sr       8.16100407      14.53461266      13.12686539  F       0.00000000       0.00000000       0.00000000      -0.11734007       0.12340672      -0.35215139      -2.34674120
Sr       5.58095618      14.64048264      16.69290226  T      -1.34295012       0.18601324       0.02696036      -0.00502926       0.00235755      -0.00097887      -2.73719287
Sr       2.81669309      15.59533176      19.86203385  T      -0.12855128       2.54116545      -3.79760534      -0.00568920      -0.01826818       0.03882630      -3.29369831
Sr       3.18953921      11.68981967      19.64067923  T      -0.83967624       0.15702617      -2.33447236      -0.00841539       0.01596206       0.00551260      -3.84097123
Sr       2.83894050       0.66414264      18.99457520  T      -0.63476647      -0.20303642      -0.78985058       0.02173200       0.00444521       0.03413124      -2.84367228
Ag       8.06297779       5.15946722      12.40035057  F       0.00000000       0.00000000       0.00000000       0.11093272      -0.11664762       0.04987210      -1.85542476
Ag       6.13595102       4.97819490      17.09663121  T       0.57967781      -0.93186896      -0.68248592       0.00479660       0.00769707       0.00473861      -2.21744823
Ag       3.17229390       5.15946722      13.35098457  F       0.00000000       0.00000000       0.00000000       0.24456078       0.26956820       0.37482408      -1.39743519
Ag       3.53695512       1.33047407      15.89498549  T      -1.43574676       2.16437811       0.18072973       0.00987191      -0.00535204      -0.01589849      -2.05875254
Ag       5.14396619       1.35728089      21.13111095  T      -1.55344855       0.06877117      -0.78848639      -0.00676917      -0.02258681       0.00467131      -1.89362681
Ag       8.61182594       1.20966172      15.22398853  F       0.00000000       0.00000000       0.00000000      -0.05799334       0.15420586      -0.05090343      -2.25747871
Ag       1.73108010      11.61698321      22.65475836  T      -1.46954461      -2.04840272       0.76143292      -0.06460596      -0.02511885       0.04592826      -2.06000328
Ag       0.55936297      11.59824716      17.30020331  T      -2.90534535      -1.74286950       1.90484615      -0.00978167      -0.00338906       0.00223846      -2.00719285
Ag       6.11032186      11.60899397      18.19433726  T       2.27785659      -0.09310290       0.97694859       0.00070037      -0.01126599       0.00176498      -2.14450312
Ag       6.18144354       7.51800760      20.87269010  T       0.37507394       3.14868314       0.61633877       0.00528613      -0.00363754       0.01706780      -1.67199862
Ag       8.34031489       7.73874621      16.57530232  T       0.39666612      -0.97076005      -1.73577947      -0.01576722      -0.00273901       0.00763961      -2.16889715
Ag       2.71976614       7.57879066      15.22398853  F       0.00000000       0.00000000       0.00000000       0.25661975       0.01629551      -0.00576058      -1.90661371
Ag       5.17563682      17.84641919      17.39177677  T      -0.67567938      -1.03965985       1.74045247       0.00391677       0.00817445       0.00408277      -2.17931390
Ag       3.51798204      18.24262515      21.81099531  T       1.09415237       0.60248163       1.11004380      -0.00680257      -0.00962890      -0.00029597      -1.90392101
Ag       0.21343690      17.78462715      18.45750239  T       0.42171750      -0.77546455       1.51698068       0.00552965       0.00725233       0.00782572      -2.12330008
Ag       0.08140685      14.17415904      21.31097333  T      -4.17976215      -0.83156957       0.45225814       0.02417268       0.00709277      -0.00299491      -2.08442402
Ag       2.26254515      13.93577218      16.26105270  T      -1.47706543      -1.69792282       0.40566425      -0.01375449      -0.00428378       0.00025852      -2.04774523
Ag       5.69637200      14.09417546      19.94116742  T       2.68207030      -1.07063637      -0.10228534       0.02570092       0.02514472      -0.01169644      -2.14191866
N        3.78346128      13.63942909      21.00911691  T       1.86056401      -3.95763831       1.24685801       0.00050335       0.01572625      -0.03074721      -6.64153051
N        3.60316954      12.68713710      21.91741214  T       2.44279608      -0.99218771       3.10829094       0.02076605      -0.04067909       0.03834540      -8.22183704
H        4.22814148      12.83553844      22.72011287  T      -0.35531827       0.54362801       0.48554344      -0.00063822      -0.02160303      -0.06901076      -3.26359248
