48
Lattice="8.838089942932129 0.0 -5.102673530578613 3.099999979481495e-15 19.10738754272461 1.2000000467046398e-15 0.0 0.0 40.821388244628906" Properties=species:S:1:pos:R:3:move_mask:L:1:momenta:R:3:forces:R:3:energies:R:1 adsorbate_info="_JSON {\"site\": {\"coordinates\": [3.49487877, 17.89772606, 22.21379852], \"connectivity\": 1, \"topology\": [40], \"n_vector\": [0.1665394353370176, 0.01569725783610901, 0.9859098399823658], \"h_vector\": [1.0, 0.0, 0.0], \"site_formula\": {\"Ag\": 1}}, \"smiles\": \"Cl\", \"mdf\": 1.7279160645691019, \"adsorbate_formula\": \"HN2\"}" bond_change_count=0 energy=-117.47655487060547 stress="8.268783130915835e-05 -1.4225501217879355e-05 -3.8284139009192586e-05 -1.4225501217879355e-05 0.00010114650649484247 6.387410849129083e-06 -3.8284139009192586e-05 6.387410849129083e-06 5.595695256488398e-05" free_energy=-117.47655487060547 pbc="T T F"
Sr       4.72065228       4.45131973      20.45456093  T      -0.16359162      -1.80381037       1.39492208      -0.01172041       0.00375996      -0.01031276      -2.10634613
Sr       0.48660249       4.60973167      20.53182739  T      -2.71714213       0.54449312       1.45810464       0.01707875       0.02974433       0.01171267      -2.37066150
Sr       2.69619508       4.58941880      16.57085985  T      -1.13433125      -0.81783212       0.24408767       0.00643357      -0.02322639      -0.00166524      -2.65796375
Sr       6.66535550       1.70127870      18.03848731  T      -0.16779687      -0.47039858       1.33453657       0.04899349      -0.01669666      -0.05425236      -2.57518101
Sr       2.64057790       1.98544860      23.87455288  T      -1.26261789       0.85613594       1.11555912       0.01622832      -0.01648486       0.03558657      -3.66675186
Sr       8.70874596       1.79635477      11.73008633  F       0.00000000       0.00000000       0.00000000      -0.01431625      -0.14851576       0.06798865      -1.95993710
Sr       5.89206028       3.18456459      14.28748608  F       0.00000000       0.00000000       0.00000000      -0.43396747       0.06962361      -0.18538545      -2.44972658
Sr       5.89206028      18.36384964      14.28748608  F       0.00000000       0.00000000       0.00000000       0.07994500      -0.16708595      -0.10040578      -2.25015235
Sr       5.89206028       7.11266756      14.28748608  F       0.00000000       0.00000000       0.00000000      -0.06854430       0.00824634      -0.30574360      -2.55417037
Sr       8.03166008      10.94190311      15.67213917  F       0.00000000       0.00000000       0.00000000      -0.21668430      -0.12180217      -0.30407161      -2.69743824
Sr       3.62311602      10.94190311      15.44810772  F       0.00000000       0.00000000       0.00000000      -0.22712654       0.03734178      -0.02271446      -2.32285953
Sr       6.02140427      10.94190311      11.74221230  F       0.00000000       0.00000000       0.00000000       0.25162721       0.13012657       0.28389540      -1.19265151
Sr       0.61498955       8.29036226      17.66677275  T       0.94074846       0.78370253      -1.78762547       0.00219492      -0.01110774      -0.02303279      -2.32900429
Sr       4.86754873       8.04619893      17.96863357  T      -1.19371362      -0.88037192       1.03359965       0.02822014       0.02092572       0.06374374      -2.62257838
Sr       2.63795455       8.14655060      21.88389539  T      -0.14920441       0.23982168       0.24248175       0.01301374       0.01695930       0.00113204      -2.11025882
Sr      -0.60131361       9.64159952      24.68702036  T       1.52207230      -0.83676203      -0.98022211       0.05283511      -0.01697606      -0.00870484      -2.18838000
Sr      -0.46809608       5.68363616      24.41339185  T      -0.61860576      -0.40110815      -0.35183312       0.02292411       0.01677420      -0.02073130      -1.89813352
Sr      -0.02724419      13.62110091      24.27237633  T      -0.40099464       1.20935198      -0.30682062       0.00931644       0.00739463       0.01269608      -2.12724924
Sr       2.13959980      17.31103325      15.67213917  F       0.00000000       0.00000000       0.00000000      -0.09076175      -0.05508456       0.19237021      -2.21120334
Sr       6.49070321      17.13571967      20.32325206  T      -0.22988777      -0.42833072      -1.99806656      -0.02631388       0.01118908      -0.04862061      -2.18320799
Sr       0.23133445      17.29598629      21.91890646  T      -0.05638137       0.06139282      -0.21777800      -0.02053062       0.01652566       0.02445261      -2.44699311
Sr       3.75246048      14.53461266      12.90283394  F       0.00000000       0.00000000       0.00000000       0.04257694      -0.15124758       0.28667274      -1.11444974
Sr       8.16100407      14.53461266      13.12686539  F       0.00000000       0.00000000       0.00000000       0.01493011       0.08358477      -0.23384456      -2.36480451
Sr       5.67821165      14.62667225      16.54080142  T       1.61674350      -0.75997324      -0.16445639      -0.01558138       0.00271965      -0.03520592      -2.62704539
Sr       2.91312686      15.75505165      19.43033098  T       0.16010206      -1.19497754       1.22170906       0.04720462       0.02665647      -0.03478912      -2.67552376
Sr       3.03511236      11.78329704      19.63165896  T       2.70664010       0.47983893      -0.07491212       0.01758523      -0.00361719       0.01265222      -2.72880220
Sr       2.84299100       0.75309219      19.22944691  T      -1.26428051       0.08399378      -1.80678734      -0.04229856      -0.00550786      -0.07697756      -2.87309170
Ag       8.06297779       5.15946722      12.40035057  F       0.00000000       0.00000000       0.00000000       0.15460563      -0.13958317       0.17620006      -1.86456299
Ag       6.04947118       4.89663958      17.13875297  T       0.16495371      -0.82723710       0.69936087       0.04760939       0.02488006       0.00175196      -2.21949029
Ag       3.17229390       5.15946722      13.35098457  F       0.00000000       0.00000000       0.00000000       0.24135047       0.27474672       0.37955129      -1.39603734
Ag       3.59413417       1.31131423      16.05608056  T       1.54144156       1.62109464      -0.99546491       0.00972936      -0.01131403       0.00124931      -2.07540536
Ag       5.38060992       1.24066115      21.09682491  T      -1.10910437       0.23186964      -0.56144301       0.03133917       0.00634347       0.05151165      -2.03169823
Ag       8.61182594       1.20966172      15.22398853  F       0.00000000       0.00000000       0.00000000      -0.25662494       0.06602717      -0.13440096      -2.18054295
Ag       1.69013665      11.25261893      22.74295912  T       0.34690813       0.15967115      -0.29235406      -0.00625956      -0.01902201      -0.02621672      -1.81545091
Ag       0.55330509      11.57787915      17.29219244  T       1.29555786       1.72173743      -0.24515641       0.00465529       0.00653749       0.02206887      -2.02486467
Ag       5.93989043      11.52745635      18.14948502  T      -0.67518698      -1.27143862      -1.18322413      -0.01601803      -0.00614966       0.00834353      -2.19227266
Ag       5.94017814       7.43758575      20.92945225  T      -1.34956571       1.04744324      -2.36478043       0.01148076       0.02605427      -0.00767048      -1.69787061
Ag       8.21687835       7.66959267      16.64477508  T       1.25216759      -0.68625893       1.75560459       0.00063407      -0.00041910       0.02267187      -2.15267563
Ag       2.71976614       7.57879066      15.22398853  F       0.00000000       0.00000000       0.00000000       0.21374807      -0.00467138      -0.00976194      -1.91307592
Ag       5.07740241      17.82902857      17.39231803  T       1.87474138      -1.29489331       0.65125086      -0.00774776      -0.00994997       0.00409588      -2.21803761
Ag       3.58679787      17.95134723      21.74204200  T      -0.95417743      -4.21581766      -5.55713193      -0.01208972      -0.03163774       0.00283629      -2.08763480
Ag       0.24853799      17.80963538      18.49464143  T       0.95433667      -0.95161927       1.42982323       0.01809832       0.02570836      -0.01024050      -2.15768194
Ag       0.73297580      13.95399789      21.19015982  T      -1.42070073       0.48121029       0.74558860      -0.01675156       0.01114459      -0.00215441      -2.14560199
Ag       2.29518834      13.94145437      16.33407890  T       0.28736566      -0.83098646      -1.53295307       0.01846237      -0.00163215       0.00992212      -2.10256767
Ag       5.66181380      13.92568279      19.71770887  T      -0.43278864      -1.00593891       0.54182517       0.00518122       0.01095332       0.02267385      -1.96537220
N        4.26902849      19.69630833      22.89422255  T       1.15463161       3.68772106       3.44774781       0.06566716      -0.05598748       0.03391279      -6.89625692
N        4.49970292      19.67982283      24.18862246  T       0.54689373       0.52385949       1.32312184      -0.04099072       0.04570599      -0.05497545      -7.78445721
H        5.10730451      18.92127692      24.49887952  T       0.74562150       0.09598185       0.17328345       0.03065895       0.03804588      -0.01781388      -3.25042820
