48
Lattice="8.838089942932129 0.0 -5.102673530578613 3.099999979481495e-15 19.10738754272461 1.2000000467046398e-15 0.0 0.0 40.821388244628906" Properties=species:S:1:pos:R:3:move_mask:L:1:momenta:R:3:forces:R:3:energies:R:1 adsorbate_info="_JSON {\"site\": {\"coordinates\": [4.910050073333333, 12.490412080000002, 19.390160243333337], \"connectivity\": 3, \"topology\": [25, 35, 44], \"n_vector\": [0.11499852160653275, -0.6269784342012619, 0.7705020331412797], \"h_vector\": [0.9496969808829571, -0.13954422316382314, -0.2803623624586604], \"site_formula\": {\"Sr\": 1, \"Ag\": 2}}, \"smiles\": \"S1S\", \"mdf\": 0.893558100231629, \"adsorbate_formula\": \"HN2\"}" bond_change_count=0 energy=-118.02668762207031 stress="9.880342986434698e-05 -2.1220383132458664e-05 -4.2094085074495524e-05 -2.1220383132458664e-05 9.382931602885947e-05 1.6452149793622084e-05 -4.2094085074495524e-05 1.6452149793622084e-05 5.34628052264452e-05" free_energy=-118.02668762207031 pbc="T T F"
Sr       4.75925201       4.31795280      20.50173402  T      -0.73430986      -0.20215629       0.45579211       0.02788479       0.04800622      -0.01409496      -2.14261937
Sr       0.49493551       4.63663244      20.47064629  T       1.66693756       0.90907959       2.42670122      -0.02464329       0.01443567      -0.00029714      -2.40524960
Sr       2.74437849       4.58387211      16.58197974  T      -1.23644992       1.02705569      -0.27786125      -0.00951248       0.00647552      -0.00919040      -2.64607549
Sr       6.76785081       1.72029303      17.99579919  T       2.76786793      -0.66659786      -0.42274617       0.00294487      -0.00351618      -0.00654781      -2.53673530
Sr       2.25061872       1.80010482      22.89355030  T      -0.62718039      -2.22420499      -1.34879247       0.00955277      -0.02557242      -0.03341290      -1.78646708
Sr       8.70874596       1.79635477      11.73008633  F       0.00000000       0.00000000       0.00000000      -0.06214859      -0.11424848       0.00159916      -1.96231556
Sr       5.89206028       3.18456459      14.28748608  F       0.00000000       0.00000000       0.00000000      -0.41625407       0.08875051      -0.19869880      -2.44736242
Sr       5.89206028      18.36384964      14.28748608  F       0.00000000       0.00000000       0.00000000       0.08556946      -0.17307004      -0.11137696      -2.25078869
Sr       5.89206028       7.11266756      14.28748608  F       0.00000000       0.00000000       0.00000000      -0.05052325       0.03079667      -0.25841951      -2.56123066
Sr       8.03166008      10.94190311      15.67213917  F       0.00000000       0.00000000       0.00000000      -0.02505096      -0.04878290      -0.19867183      -2.86881924
Sr       3.62311602      10.94190311      15.44810772  F       0.00000000       0.00000000       0.00000000      -0.26454985       0.03971051       0.07665768      -2.33275843
Sr       6.02140427      10.94190311      11.74221230  F       0.00000000       0.00000000       0.00000000       0.28262892       0.13941380       0.30494234      -1.11876178
Sr       0.62125787       8.30700072      17.65781733  T       0.66821005      -0.75485904      -0.53093295       0.00315206      -0.00279175      -0.00900184      -2.27273178
Sr       4.79269082       8.01934089      18.00505838  T       0.14756551       0.45903231       0.93900475       0.01293788       0.00745827      -0.00720245      -2.57760859
Sr       2.72784655       7.78495006      21.99030410  T      -1.12452611      -1.70342505       0.87068962       0.00582536      -0.01380697      -0.01071550      -2.10061336
Sr      -0.96564771       9.62863918      24.97075122  T       0.30286424      -0.39594191       1.26320316       0.08229081       0.02332111      -0.00503754      -2.29130673
Sr      -0.31131704       5.64598133      24.39318826  T      -0.34155104       0.96273450      -0.06596165      -0.02842516      -0.00367528       0.00129578      -1.91955900
Sr       0.22575342      13.38422893      24.04004544  T       2.03132861       2.13435772      -0.69177380      -0.05780145       0.01182880       0.07440162      -2.36847019
Sr       2.13959980      17.31103325      15.67213917  F       0.00000000       0.00000000       0.00000000      -0.04819868      -0.08295208       0.15517548      -2.21973705
Sr       6.53918551      17.21511907      20.35918294  T      -1.54867711       0.13584897       0.77034736      -0.01561482      -0.03206298      -0.00699305      -2.16422558
Sr       0.22612494      17.30030992      21.93752759  T      -1.85040687      -1.29417662      -1.68978367       0.00918482      -0.04233561      -0.00938112      -2.52504754
Sr       3.75246048      14.53461266      12.90283394  F       0.00000000       0.00000000       0.00000000       0.06500894      -0.15742739       0.33872581      -1.13542199
Sr       8.16100407      14.53461266      13.12686539  F       0.00000000       0.00000000       0.00000000      -0.03345671       0.11198257      -0.38804540      -2.36352444
Sr       5.72831222      14.58073829      16.60994797  T      -1.65318393       0.38487932       0.11693943       0.00704929      -0.00677601       0.00789315      -2.65724611
Sr       2.99663639      15.68496278      19.37989297  T       0.01939350      -2.01553564       0.23627867       0.01076645      -0.03825020      -0.00143233      -2.73959303
Sr       3.29353291      11.67144627      20.47508700  T      -2.94029448      -0.34073896      -1.77072806      -0.07270482       0.05615307       0.00351730      -3.57535648
Sr       2.89243233       0.71788697      19.00675889  T      -0.62698713      -0.30478297      -0.78136938      -0.03741219      -0.03373832      -0.04164297      -2.83289313
Ag       8.06297779       5.15946722      12.40035057  F       0.00000000       0.00000000       0.00000000       0.13631848      -0.10724191       0.10558631      -1.85466862
Ag       6.17484834       4.96442873      17.12078363  T       0.57284748      -0.91787300      -0.67723367      -0.02742735      -0.01701144      -0.01378596      -2.22154260
Ag       3.17229390       5.15946722      13.35098457  F       0.00000000       0.00000000       0.00000000       0.24635386       0.27585071       0.39049873      -1.39952683
Ag       3.48668896       1.33712853      15.84768702  T      -1.43606920       2.17362557       0.17337941       0.02754457      -0.00098127       0.00181305      -2.04442024
Ag       5.21955919       1.16393658      21.16693670  T      -1.56200901       0.06200934      -0.78667447       0.02321014       0.00382716      -0.00404425      -1.88797665
Ag       8.61182594       1.20966172      15.22398853  F       0.00000000       0.00000000       0.00000000      -0.02464882       0.08456977      -0.05868430      -2.26577330
Ag       1.45330565      10.48949309      23.02041107  T      -0.80385844      -0.24114352      -0.45203512      -0.01867398       0.03045186      -0.00127194      -1.82366800
Ag       0.78294572      11.61169604      17.56846516  T      -3.00830427      -1.78713884       1.75684964      -0.01493252       0.00302328      -0.02625576      -2.01003861
Ag       5.81133635      11.55070875      18.06145393  T       4.80306028      -1.81711032      -3.10192681      -0.03260426      -0.03129004       0.01649898      -2.13930702
Ag       5.92646164       7.27044631      20.93628233  T       0.38119067       3.13629528       0.62148331       0.01219803      -0.01434316       0.02878421      -1.73808563
Ag       8.22741421       7.66558217      16.71038206  T       0.40709961      -0.98859983      -1.72425982      -0.01769446       0.01639070       0.00923069      -2.16248512
Ag       2.71976614       7.57879066      15.22398853  F       0.00000000       0.00000000       0.00000000       0.21175526      -0.00872439       0.00847199      -1.91392112
Ag       5.20852222      17.78701737      17.40265189  T      -0.76077743      -1.11011347       1.79729539      -0.02379093      -0.04131293      -0.01702550      -2.19381976
Ag       3.55675959      18.10295991      21.73152707  T       1.04587690       0.34529376       0.96422095       0.00382044      -0.05689512      -0.00989875      -1.92275977
Ag       0.27558365      17.78778709      18.47425886  T       0.50814790      -0.82525801       1.54249604      -0.01915717       0.01006604      -0.01966447      -2.15701437
Ag       0.65639816      14.03410039      21.04202659  T       0.27247989      -1.13251578      -0.08098097      -0.02056037       0.01998444      -0.03701390      -2.08683300
Ag       2.31133833      13.95560571      16.32094479  T      -1.44726441      -1.63818577       0.42478632       0.02266015       0.01685065      -0.02523384      -2.04861259
Ag       5.97642894      13.99977622      19.82234985  T       6.61079083      10.08016038       0.06590404       0.02035306       0.01610565       0.03201543      -2.12960672
N        5.28478590      11.71361300      22.11222380  T      -5.93476470      -4.80884753       5.40856708       0.00416832       0.05652615      -0.01597171      -7.77081108
N        5.37325636      12.77723822      21.67863921  T       1.01077892      -4.65742714       0.12518794       0.01031211      -0.02709582      -0.02446234      -7.99400425
H        1.03976867      12.20516370      21.93029761  T      -1.03915456      -0.03788947       0.72431328       0.02229539      -0.02807660       0.00636743      -3.45927882
