56
Lattice="13.63385009765625 0.0 8.000000134899068e-16 1.3000000153036537e-15 7.871507167816162 -3.780327320098877 0.0 0.0 34.022945404052734" Properties=species:S:1:pos:R:3:move_mask:L:1:momenta:R:3:forces:R:3:energies:R:1 adsorbate_info="_JSON {\"site\": {\"coordinates\": [8.966168880000001, 3.6326384550000004, 20.37176514], \"connectivity\": 2, \"topology\": [27, 35], \"n_vector\": [-0.7332142621264609, 0.3275422333204503, 0.5959135266175799], \"h_vector\": [-0.31900565464097286, 0.753972377567633, -0.574248244378766], \"site_formula\": {\"Sc\": 2}}, \"smiles\": \"S1S\", \"mdf\": 1.7853934709331436, \"adsorbate_formula\": \"HO\"}" bond_change_count=0 energy=-336.6363525390625 stress="0.0003550536057446152 -6.363459874592081e-07 1.3329277862794697e-05 -6.363459874592081e-07 0.0002912948839366436 -7.981725502759218e-05 1.3329277862794697e-05 -7.981725502759218e-05 0.00018325445125810802" free_energy=-336.6363525390625 pbc="T T F"
Sc       6.81692505       2.06025004      11.86602783  F       0.00000000       0.00000000       0.00000000      -0.00081714       0.40580896      -0.12933770      -6.56651497
Sc       0.00000000       5.99600363      11.86602783  F       0.00000000       0.00000000       0.00000000       0.00699475       0.02427064       0.01184520      -6.34052944
Sc       1.62423372       0.93775177      11.86602783  F       0.00000000       0.00000000       0.00000000      -0.29626614      -0.11486954       0.50181925      -5.98558998
Sc       8.44115829       4.87350512      11.86602783  F       0.00000000       0.00000000       0.00000000      -0.78420782      -0.38153619      -0.11435971      -6.33054352
Sc       5.19269133       4.87350512      11.86602783  F       0.00000000       0.00000000       0.00000000       0.78800261      -0.41240299      -0.10596882      -6.33755541
Sc      12.00961685       0.93775177      11.86602783  F       0.00000000       0.00000000       0.00000000       0.30280855      -0.11803682       0.49378294      -5.98384762
Sc       6.81692505       7.02371693       9.97586441  F       0.00000000       0.00000000       0.00000000       0.01840702      -0.34770596      -0.20105888      -6.72323179
Sc       0.00000000       3.08796358       9.97586441  F       0.00000000       0.00000000       0.00000000       0.00083485       0.32055333       0.94253647      -4.81616020
Sc       4.14267015       2.39177179      13.75619125  F       0.00000000       0.00000000       0.00000000      -0.12990287      -0.50893748      -0.08145659      -6.60535383
Sc      10.95959568       6.32752514       9.97586441  F       0.00000000       0.00000000       0.00000000       0.13651925       0.37528431       0.02915183      -6.12846184
Sc       2.67425489       6.32752514       9.97586441  F       0.00000000       0.00000000       0.00000000      -0.14543705       0.36861858       0.00277516      -6.12631321
Sc       9.49117947       2.39177179      13.75619125  F       0.00000000       0.00000000       0.00000000       0.10954642      -0.47901136      -0.05631797      -6.61745834
Sc       6.81705389       2.15123925      15.62979073  T       1.17216193      -1.45233673       0.12900300       0.00479577       0.00993149       0.00404299      -6.37570286
Sc      -0.00963237       5.96325965      15.56903174  T       0.05593686       0.99438707       0.61544565      -0.00125270      -0.04808092      -0.06112304      -6.18053484
Sc       1.53974685       0.86942158      15.52842022  T      -1.04467008      -1.02556942      -1.73405844      -0.01109779       0.01557202       0.02249211      -6.27917671
Sc       8.43686924       4.83553929      15.55274948  T      -1.16943679      -2.30586502      -0.47204708       0.01588984       0.02027602       0.00283013      -6.29589510
Sc       5.18983028       4.79014492      15.54653793  T       0.33222705      -0.49496684       0.98875032       0.02800846       0.03572153       0.02738443      -6.28112698
Sc      12.11598710       0.85692945      15.54772317  T       1.13805306      -0.26807834      -0.88545602      -0.01231596       0.03694427       0.01766074      -6.29309988
Sc       6.81692505       7.02371693      13.75619125  F       0.00000000       0.00000000       0.00000000       0.07905991       0.04651639      -0.14164482      -6.49521637
Sc       0.00000000       3.08796358      13.75619125  F       0.00000000       0.00000000       0.00000000       0.05600110      -0.21656218      -0.62149549      -6.59324169
Sc       3.98467271       2.33399843      17.53817534  T       0.41788536       0.73830925       0.69833474       0.00539297       0.01548389      -0.01158586      -6.51804066
Sc      10.95959568       6.32752514      13.75619125  F       0.00000000       0.00000000       0.00000000      -0.16388346      -0.24628724      -0.21553069      -6.52398062
Sc       2.67425489       6.32752514      13.75619125  F       0.00000000       0.00000000       0.00000000       0.01971287      -0.26911551      -0.36303705      -6.55993843
Sc       9.63745645       2.41973313      17.53923298  T       0.46069221       0.66653297       0.32971024      -0.00782549       0.03571902       0.00712026      -6.57902241
Sc       6.82465256       2.23759649      18.99457460  T      -0.59264057      -0.68579456      -1.26696230       0.01608434      -0.03935155       0.02983405      -5.92555857
Sc       0.01485394       5.94485096      19.00567264  T       2.01833762       1.01190693      -1.08088694      -0.01182029      -0.03060307       0.00422281      -5.76601601
Sc       1.57951065       0.87891640      19.23218862  T      -0.42145957       0.10512982      -0.57278255       0.05879418       0.06250753      -0.02646305      -6.27559137
Sc       8.43872265       4.89540851      19.24289417  T      -1.53855647      -0.00330970      -1.11639714      -0.01701689       0.04270498      -0.06057501      -6.29043770
Sc       5.12185678       4.80566059      19.02413731  T       1.29738664       0.71205683      -1.20910018       0.06122613       0.02566573      -0.06427018      -5.86295223
Sc      12.07624084       0.83190742      19.26373157  T       0.76701272       0.19305051      -0.07142263      -0.03938779       0.03991447      -0.00480039      -6.33220577
Sc       6.79325002       6.87771673      17.42945014  T      -0.01371886       0.04606306      -0.21062357       0.01071893      -0.00828067      -0.01483864      -5.98159885
Sc       0.05411255       3.10316677      17.37709032  T      -0.87414304       0.03513710      -0.80807733      -0.03326108      -0.01135829      -0.03349382      -6.67348528
Sc       4.26858527       2.32761550      20.81457880  T      -0.46214657      -0.62208466      -1.97461450      -0.03748584       0.04165024      -0.02978587      -5.22902107
Sc      10.99967889       6.15838396      17.32295591  T      -0.02133887       0.00362852      -0.83962585      -0.02293788       0.04021248      -0.01698901      -6.24566221
Sc       2.56766318       6.29257401      17.30334989  T       0.17033536       1.19669008       0.10888429       0.02712750       0.02610011      -0.00014487      -6.28384733
Sc       9.49972411       2.56288761      20.87201666  T      -1.12964837       0.43939681      -1.63138304      -0.01671439      -0.02039230       0.08196466      -6.68176651
Ni       6.81692505       3.93575358       9.97586441  F       0.00000000       0.00000000       0.00000000       0.00032049       0.94064891       1.36643720      -3.83035469
Ni       0.00000000       0.00000000      13.75619125  F       0.00000000       0.00000000       0.00000000       0.01324138      -0.02240776      -0.38225400      -5.81750154
Ni       6.81692505       3.93575358      13.75619125  F       0.00000000       0.00000000       0.00000000       0.02539246      -0.11517813      -0.29336616      -6.14937639
Ni       0.01078193      -0.06437557      17.44959359  T       0.18223479      -0.28231748      -1.01997029      -0.00458182       0.02132634       0.00945687      -6.19801378
Ni       6.83164467       4.21603644      17.41101244  T      -1.11377030       0.89499350       0.64881017      -0.00027714      -0.00232776       0.01520154      -6.10165119
Ni       0.11466670      -0.27785409      21.05575807  T      -0.51588260      -3.57561781       0.44208500       0.01063591       0.08154375       0.04977981      -5.17879486
Te       2.27230835       3.93575358      11.86602783  F       0.00000000       0.00000000       0.00000000      -0.24749173      -0.05474741      -0.51013714      -5.58029699
Te       9.08923340       0.00000000      11.86602783  F       0.00000000       0.00000000       0.00000000      -0.00143934       0.15727237       0.19188780      -4.62891436
Te       4.54461670       0.00000000      11.86602783  F       0.00000000       0.00000000       0.00000000       0.00542472       0.15473893       0.17648432      -4.62300873
Te      11.36154175       3.93575358      11.86602783  F       0.00000000       0.00000000       0.00000000       0.24863550      -0.04500778      -0.50869578      -5.57692528
Te       2.25618261       3.87492236      15.55785834  T      -2.14435364       1.26124079      -0.91105018       0.02998620      -0.00531577      -0.03320933      -6.05157471
Te       9.10124974      -0.00455558      15.63870364  T       1.29161675       1.27582223      -0.05646733      -0.00504654       0.05990642      -0.00292809      -5.94236517
Te       4.54405351      -0.01259734      15.62481028  T       0.01747306      -1.43169285       0.00509783      -0.00127885       0.04308170       0.00701675      -5.94786930
Te      11.39757726       3.83351775      15.54577723  T       0.79064180       0.42116083       1.11225161      -0.03400783       0.01312766       0.01560445      -6.04522848
Te       2.18274218       3.89009628      19.39496306  T       1.22499450      -0.09132550       3.56898897       0.03161143       0.00703263       0.06471449      -5.19767761
Te       9.05149389       0.02032559      19.42425442  T       0.89131360       1.19006933       0.69767331       0.03395759       0.02145901       0.01053536      -5.89245939
Te       4.54926322      -0.08154702      19.32636357  T       0.42941815       0.97739704       1.29393966       0.03301530      -0.00061394       0.03535209      -6.00063324
Te      11.56182693       3.83076114      19.32986689  T      -2.02097916      -0.40326680      -1.75263365       0.01856805       0.04550421      -0.02394703      -5.07919788
O        8.87071048       4.31948546      21.31829460  T       1.41522641      -0.94449320      -0.82541315      -0.08476144       0.01276851      -0.00462639      -8.65674973
H        8.79805327       4.92202990      22.07345103  T      -0.58947199      -0.00495577       0.06651192      -0.08619922      -0.04973626      -0.00849158      -3.05310869
