56
Lattice="13.63385009765625 0.0 8.000000134899068e-16 1.3000000153036537e-15 7.871507167816162 -3.780327320098877 0.0 0.0 34.022945404052734" Properties=species:S:1:pos:R:3:move_mask:L:1:momenta:R:3:forces:R:3:energies:R:1 adsorbate_info="_JSON {\"site\": {\"coordinates\": [9.0892334, 0.0, 19.42668343], \"connectivity\": 1, \"topology\": [51], \"n_vector\": [-0.18962597518544236, 0.035912705834979734, 0.9811994023105499], \"h_vector\": [1.0, 0.0, 0.0], \"site_formula\": {\"Te\": 1}}, \"smiles\": \"Cl\", \"mdf\": 1.701957677669591, \"adsorbate_formula\": \"HO\"}" bond_change_count=0 energy=-338.1531677246094 stress="0.000389493303373456 1.1696789670168073e-06 -8.408810572291259e-07 1.1696789670168073e-06 0.0003065310011152178 -6.332508928608149e-05 -8.408810572291259e-07 -6.332508928608149e-05 0.00016158682410605252" free_energy=-338.1531677246094 pbc="T T F"
Sc       6.81692505       2.06025004      11.86602783  F       0.00000000       0.00000000       0.00000000       0.00846260       0.38826516      -0.14250967      -6.56688976
Sc       0.00000000       5.99600363      11.86602783  F       0.00000000       0.00000000       0.00000000       0.01090972       0.12349606       0.06770431      -6.34220791
Sc       1.62423372       0.93775177      11.86602783  F       0.00000000       0.00000000       0.00000000      -0.30532771      -0.12077980       0.50114536      -5.98621273
Sc       8.44115829       4.87350512      11.86602783  F       0.00000000       0.00000000       0.00000000      -0.76781815      -0.39962929      -0.11147869      -6.34382010
Sc       5.19269133       4.87350512      11.86602783  F       0.00000000       0.00000000       0.00000000       0.79770690      -0.40845156      -0.08497438      -6.33461475
Sc      12.00961685       0.93775177      11.86602783  F       0.00000000       0.00000000       0.00000000       0.30344748      -0.11264743       0.49964687      -5.97459412
Sc       6.81692505       7.02371693       9.97586441  F       0.00000000       0.00000000       0.00000000      -0.04824796      -0.36424348      -0.26645112      -6.72268200
Sc       0.00000000       3.08796358       9.97586441  F       0.00000000       0.00000000       0.00000000       0.00277437       0.31720138       0.94569838      -4.81442451
Sc       4.14267015       2.39177179      13.75619125  F       0.00000000       0.00000000       0.00000000      -0.13945854      -0.45911211      -0.05380922      -6.61251259
Sc      10.95959568       6.32752514       9.97586441  F       0.00000000       0.00000000       0.00000000       0.20045651       0.35434943      -0.07125035      -6.13931322
Sc       2.67425489       6.32752514       9.97586441  F       0.00000000       0.00000000       0.00000000      -0.14756183       0.39588791       0.03903088      -6.12702751
Sc       9.49117947       2.39177179      13.75619125  F       0.00000000       0.00000000       0.00000000       0.22311664      -0.30462274      -0.04994464      -6.60351610
Sc       6.79892651       2.08851979      15.59904718  T      -0.68405055       0.60610197      -0.67772853       0.02866614       0.05162537      -0.00386347      -6.37852001
Sc      -0.05491473       6.03054451      15.61859220  T      -0.05640494       1.65721008       0.68820849       0.02465840       0.01821077       0.02764246      -6.22528458
Sc       1.53638007       0.88008821      15.53390308  T      -2.33163535      -0.72390322      -0.31536503      -0.02302366       0.00780528      -0.00115801      -6.27171516
Sc       8.43406039       4.91322813      15.50532043  T       0.72767516      -0.00938304       0.37351537      -0.04911420      -0.04975744      -0.00314321      -6.27089691
Sc       5.27091775       4.84028097      15.57988261  T       0.33543077       0.46935405      -0.55985866       0.02104172       0.00675489      -0.01841556      -6.34682083
Sc      12.11593161       0.89890745      15.53276621  T       1.32606526       0.10236741       0.20593275       0.01707491       0.01826805      -0.00051923      -6.32396841
Sc       6.81692505       7.02371693      13.75619125  F       0.00000000       0.00000000       0.00000000      -0.26537296       0.04786763      -0.35073286      -6.45740891
Sc       0.00000000       3.08796358      13.75619125  F       0.00000000       0.00000000       0.00000000      -0.08208697      -0.12908134      -0.45150617      -6.60056973
Sc       4.00097211       2.46422207      17.54585771  T      -0.33563003       0.75766651       0.71873890       0.01550773      -0.02030652       0.01343194      -6.50841570
Sc      10.95959568       6.32752514      13.75619125  F       0.00000000       0.00000000       0.00000000       0.03524895      -0.30431336      -0.51735926      -6.49915504
Sc       2.67425489       6.32752514      13.75619125  F       0.00000000       0.00000000       0.00000000       0.10413156      -0.12024059      -0.22439370      -6.58187103
Sc       9.58424389       2.51215396      17.41516280  T      -0.52065292       1.51895692       1.50563304      -0.00939102       0.01883832       0.01154693      -6.65257549
Sc       6.78585357       2.13825968      19.01391521  T       0.53122067       0.80561458      -0.61104227      -0.05282721       0.00000855       0.02013198      -5.89493990
Sc      -0.31640646       5.86776333      18.87204287  T      -0.80909827       0.07931484      -2.90523624      -0.00728927       0.04404149      -0.00232382      -5.82988262
Sc       1.67074368       0.93046954      19.23092366  T      -0.42112204       0.02116534      -0.75593367       0.00618988      -0.03583339      -0.02302496      -6.31651640
Sc       8.38576245       4.84117529      19.16198616  T      -0.16222933      -2.19193625      -0.95650881      -0.04054327       0.01293769       0.03503194      -6.08865118
Sc       5.36207199       4.95869824      18.92618481  T       0.64428000      -0.40874814      -1.61284867       0.00080805       0.05504677      -0.01768297      -6.09589767
Sc      12.16128851       0.84055449      19.33349831  T      -0.50558824      -1.25819396      -0.69499374      -0.00317982       0.02507171       0.00846198      -6.32810163
Sc       7.26148423       7.21262732      17.54078814  T       0.78637527       1.48975686       0.91749635       0.04688251      -0.01566482       0.05982228      -6.43061399
Sc       0.04770342       3.06791319      17.37283522  T       0.50646440       0.80259936      -0.15128141       0.00847825      -0.01154980      -0.01058778      -6.58482075
Sc       4.30711328       2.51009329      20.73727487  T       2.77681529       1.65139290      -0.80059332      -0.04733863       0.01982431       0.00724727      -5.25279140
Sc      10.47005215       6.58380850      17.46208337  T      -0.58429535       0.78564168      -1.62696303       0.00556391       0.02652538       0.01340565      -6.42738771
Sc       2.46278385       6.23983554      17.36797062  T       0.60908211      -1.71398304      -0.79617737      -0.01808530      -0.01411608       0.03325041      -6.43927050
Sc       9.40653238       1.73718389      21.37154139  T       0.09751234      -2.75874311      -1.87351152       0.01627290      -0.08173370       0.01645431      -7.23201275
Ni       6.81692505       3.93575358       9.97586441  F       0.00000000       0.00000000       0.00000000      -0.00362422       0.93542659       1.36773348      -3.83065033
Ni       0.00000000       0.00000000      13.75619125  F       0.00000000       0.00000000       0.00000000      -0.00953948       0.00900266      -0.35978252      -5.81189156
Ni       6.81692505       3.93575358      13.75619125  F       0.00000000       0.00000000       0.00000000      -0.02136977      -0.10946836      -0.27626395      -6.14409781
Ni       0.05194050      -0.04382602      17.49193417  T      -0.43150254       1.37805033       1.04958608      -0.00345129       0.00167285      -0.03589007      -6.18528366
Ni       6.99056298       3.93013632      17.36205624  T      -0.46068618      -0.76292388       2.44612367       0.00988746      -0.00147501      -0.01027429      -6.09521961
Ni       0.30414138      -0.19221581      21.12513625  T       0.15825262      -1.83184126      -0.59365464       0.02204253      -0.02509347       0.02119261      -5.01613665
Te       2.27230835       3.93575358      11.86602783  F       0.00000000       0.00000000       0.00000000      -0.25150210      -0.03207088      -0.48894870      -5.57483101
Te       9.08923340       0.00000000      11.86602783  F       0.00000000       0.00000000       0.00000000       0.00083462       0.16316450       0.09056512      -4.58493233
Te       4.54461670       0.00000000      11.86602783  F       0.00000000       0.00000000       0.00000000      -0.00503214       0.15735963       0.20928439      -4.63621330
Te      11.36154175       3.93575358      11.86602783  F       0.00000000       0.00000000       0.00000000       0.26108897      -0.06575619      -0.44938010      -5.60184097
Te       2.26343628       3.89805433      15.54769274  T      -0.44375452      -0.20415401      -1.40086451      -0.00308748       0.01798641       0.00572417      -6.04344368
Te       9.10405383      -0.01286290      15.54253706  T      -0.10656921      -0.55738288      -0.64934060      -0.01268351       0.01091144       0.01950021      -5.89392614
Te       4.51877080      -0.00343128      15.65403989  T      -0.96567633      -0.25536545      -0.07008834       0.00499698       0.02026934      -0.00489540      -5.96452141
Te      11.37735372       4.00173117      15.63314523  T       1.03123568      -1.17512220      -0.01263307      -0.00206998       0.00557490      -0.00392041      -5.98426437
Te       2.13013754       4.00953047      19.40328181  T      -2.34617166      -0.43039547      -0.58980855       0.02272617      -0.01721141      -0.00177497      -5.12177658
Te       9.11360141       0.11841528      19.04280524  T      -0.28268384       0.23747423     -10.39123621       0.04755443       0.01291310       0.07019529      -5.88541174
Te       4.61808995      -0.08145143      19.50244158  T       1.37995302       2.48521980       1.51159305       0.04594057       0.00561841       0.01226220      -5.86834526
Te      11.24711416       3.67380353      19.56974892  T       1.01200640      -0.61530144       2.04172445       0.00744052      -0.01923659       0.02881727      -4.96732330
O        9.07864769       0.11856583      22.18566589  T      -1.09961253       3.90036241       7.73295021       0.02699156      -0.01402628      -0.08421433      -8.44033051
H        6.89808375      -1.67288233      23.10717509  T      -1.47705942       0.99502943       1.19846269      -0.00787639      -0.03550443      -0.00445414      -3.89685297
