56
Lattice="13.63385009765625 0.0 8.000000134899068e-16 1.3000000153036537e-15 7.871507167816162 -3.780327320098877 0.0 0.0 34.022945404052734" Properties=species:S:1:pos:R:3:move_mask:L:1:momenta:R:3:forces:R:3:energies:R:1 adsorbate_info="_JSON {\"site\": {\"coordinates\": [8.0535657425, 0.9010578980459596, 20.371764782524714], \"connectivity\": 4, \"topology\": [24, 30, 35, 51], \"n_vector\": [-0.14758001115669586, 0.2725972950014629, 0.9507422653195107], \"h_vector\": [0.6366117892170678, 0.7711844330831162, 3.403909168489284e-07], \"site_formula\": {\"Sc\": 3, \"Te\": 1}}, \"smiles\": \"S1S\", \"mdf\": 1.999847115684902, \"adsorbate_formula\": \"HO\"}" bond_change_count=0 energy=-336.7362976074219 stress="0.0003815830568782985 1.3366116036195308e-05 -2.4960988866951084e-06 1.3366116036195308e-05 0.0003106594958808273 -7.833621930330992e-05 -2.4960988866951084e-06 -7.833621930330992e-05 0.00018429079500492662" free_energy=-336.7362976074219 pbc="T T F"
Sc       6.81692505       2.06025004      11.86602783  F       0.00000000       0.00000000       0.00000000       0.00034754       0.40110293      -0.12708794      -6.56392097
Sc       0.00000000       5.99600363      11.86602783  F       0.00000000       0.00000000       0.00000000      -0.00200968       0.13556096       0.07594567      -6.34242058
Sc       1.62423372       0.93775177      11.86602783  F       0.00000000       0.00000000       0.00000000      -0.31365687      -0.11394966       0.50169134      -5.97995472
Sc       8.44115829       4.87350512      11.86602783  F       0.00000000       0.00000000       0.00000000      -0.80002308      -0.40698668      -0.09166768      -6.33866024
Sc       5.19269133       4.87350512      11.86602783  F       0.00000000       0.00000000       0.00000000       0.79983717      -0.39780223      -0.07627771      -6.33572817
Sc      12.00961685       0.93775177      11.86602783  F       0.00000000       0.00000000       0.00000000       0.30936730      -0.11515500       0.49941292      -5.98417044
Sc       6.81692505       7.02371693       9.97586441  F       0.00000000       0.00000000       0.00000000      -0.02170171      -0.35582584      -0.21721195      -6.71270037
Sc       0.00000000       3.08796358       9.97586441  F       0.00000000       0.00000000       0.00000000      -0.00052228       0.31909046       0.94497693      -4.81699848
Sc       4.14267015       2.39177179      13.75619125  F       0.00000000       0.00000000       0.00000000      -0.14641468      -0.45659137      -0.07122815      -6.61598301
Sc      10.95959568       6.32752514       9.97586441  F       0.00000000       0.00000000       0.00000000       0.17713282       0.36653733      -0.01249534      -6.13485909
Sc       2.67425489       6.32752514       9.97586441  F       0.00000000       0.00000000       0.00000000      -0.16170810       0.39522806       0.03793785      -6.12888384
Sc       9.49117947       2.39177179      13.75619125  F       0.00000000       0.00000000       0.00000000       0.12540624      -0.43854532      -0.09610254      -6.62151957
Sc       6.80258784       2.10189915      15.59818595  T       0.98493340      -0.03318421       1.87284017       0.01708854       0.04934525      -0.00464739      -6.37409782
Sc      -0.02223364       5.99616869      15.53804763  T      -1.32819042       1.53781663       1.10980644      -0.00147798      -0.00510395      -0.01931345      -6.16409111
Sc       1.51859401       0.88294796      15.56074779  T      -0.94129381      -0.95522946      -0.57808295      -0.01690713       0.01007537      -0.01323248      -6.29363298
Sc       8.41442910       4.88723594      15.57203512  T      -1.01614732      -0.70112520       0.70035399      -0.02914642      -0.03437565      -0.00099440      -6.29665613
Sc       5.22522824       4.88712109      15.55955052  T       1.00509018      -0.79629369       0.58913941       0.02885553       0.00243244       0.00134380      -6.32499599
Sc      12.10720263       0.88267314      15.54790273  T       1.41238162      -0.11974462      -0.39682920       0.03201851      -0.00531264      -0.00041398      -6.28979397
Sc       6.81692505       7.02371693      13.75619125  F       0.00000000       0.00000000       0.00000000      -0.06097988       0.08830567      -0.27880329      -6.43853807
Sc       0.00000000       3.08796358      13.75619125  F       0.00000000       0.00000000       0.00000000       0.01828430      -0.17607763      -0.56616831      -6.58796644
Sc       4.00797373       2.41661047      17.53138551  T       0.65767153      -0.22916178       1.35055320       0.01988825      -0.01421529      -0.03847394      -6.56180906
Sc      10.95959568       6.32752514      13.75619125  F       0.00000000       0.00000000       0.00000000       0.00455059      -0.24744299      -0.34178928      -6.52626419
Sc       2.67425489       6.32752514      13.75619125  F       0.00000000       0.00000000       0.00000000       0.04571436      -0.13872732      -0.22835553      -6.54917812
Sc       9.59657951       2.39621211      17.46188581  T       0.51477921       0.82187468       0.70172135      -0.01293281      -0.02768879       0.02048008      -6.60065222
Sc       6.77721007       2.13455848      18.91069000  T       0.76400153       0.75457245       0.16098450       0.00789603      -0.00683641       0.05054677      -5.70651531
Sc      -0.09734219       5.88515526      19.05676377  T       0.29831282       0.14024428      -0.52459023      -0.01080549       0.01608627       0.01097968      -5.68093395
Sc       1.58386226       0.95479201      19.25827060  T      -1.41773701      -1.41075424       0.45651872       0.00437674      -0.01311667      -0.01733553      -6.33139610
Sc       8.37870676       4.84757859      18.99709169  T      -0.36763114      -0.41143964      -1.38633247       0.01584654      -0.02472869       0.00084280      -5.90735531
Sc       5.24562642       4.95288423      18.91421068  T       0.83933812      -1.20149052      -1.17148240       0.00266145      -0.00569686       0.01617038      -5.88776445
Sc      12.07243715       0.92513418      19.29557096  T       0.21853588      -0.01299564      -0.10089472       0.00590771       0.00907440      -0.01980913      -6.35509682
Sc       6.99377297       7.48017568      17.48226030  T      -0.63330754       0.46461085       0.29722225      -0.02020529       0.03006339       0.03058704      -6.63733530
Sc      -0.00778015       3.15251879      17.39008305  T      -0.23068306      -0.20234818       0.19852975       0.00989582       0.00042233       0.01193821      -6.59781361
Sc       4.44692561       2.49333841      20.78143079  T       0.12692660      -0.68690560      -2.14037994      -0.00580383       0.03382216      -0.01820678      -5.29452229
Sc      11.00685824       6.24661240      17.29687331  T       0.61508393      -1.25232702      -1.44288407      -0.00500080       0.00280476       0.01983944      -6.21278048
Sc       2.45978451       6.28407665      17.32907023  T      -0.77752004      -0.00983580      -0.15280910       0.00969602      -0.02408579      -0.01888415      -6.28872108
Sc       9.05707339       2.13841099      21.05001603  T      -1.07627115      -1.14875876      -1.05950577      -0.03085756       0.01465917       0.02300379      -6.61778355
Ni       6.81692505       3.93575358       9.97586441  F       0.00000000       0.00000000       0.00000000      -0.00064472       0.94020200       1.36831248      -3.83150053
Ni       0.00000000       0.00000000      13.75619125  F       0.00000000       0.00000000       0.00000000       0.00381018       0.00716953      -0.32749307      -5.80992031
Ni       6.81692505       3.93575358      13.75619125  F       0.00000000       0.00000000       0.00000000      -0.00787938      -0.07364539      -0.23955214      -6.13695717
Ni      -0.00998774      -0.00425336      17.47966777  T       0.23448908       0.53929637      -0.07293445       0.01070183      -0.01611219       0.00240123      -6.18051052
Ni       6.82061508       3.98519102      17.33941405  T      -0.03526906       0.02139694       1.19236986       0.02437433       0.02745924      -0.03962145      -6.08133793
Ni       0.05445331      -0.30751548      21.09584815  T      -0.43944948      -2.19669939      -0.19024445       0.01960462       0.00185589       0.01135949      -5.18448687
Te       2.27230835       3.93575358      11.86602783  F       0.00000000       0.00000000       0.00000000      -0.24235690      -0.03855827      -0.49147159      -5.57822657
Te       9.08923340       0.00000000      11.86602783  F       0.00000000       0.00000000       0.00000000       0.00054118       0.15050355       0.15567666      -4.61335850
Te       4.54461670       0.00000000      11.86602783  F       0.00000000       0.00000000       0.00000000      -0.00261034       0.15387754       0.19970748      -4.63191128
Te      11.36154175       3.93575358      11.86602783  F       0.00000000       0.00000000       0.00000000       0.25323445      -0.06024367      -0.50565052      -5.57655525
Te       2.25917514       3.88586217      15.55533544  T      -0.98946475       0.52510387       0.26711681      -0.00118931       0.00833132       0.03099975      -6.04154491
Te       9.10767773      -0.01464870      15.60143413  T       2.28986293       1.28550948      -0.85593704      -0.03009800       0.03185203       0.01645774      -5.94540691
Te       4.51337992      -0.00943448      15.64368646  T      -0.46460270       0.56831116      -1.58579406       0.03357362       0.02421921      -0.00695216      -5.96055889
Te      11.37511793       3.87593114      15.55190915  T       2.20544842       1.57842578      -0.53832707      -0.02703406      -0.00762610      -0.01070495      -6.06031609
Te       2.24854515       3.97781780      19.40462142  T      -1.66965412       1.44380286       0.65026030       0.01578523      -0.00900552       0.00691456      -5.17425251
Te       9.11168350      -0.00395166      19.27122149  T       3.22789246      -2.40559334      -1.21479091      -0.02210294      -0.02256082      -0.03840740      -5.91468048
Te       4.55442269      -0.02344284      19.42041974  T      -0.19862387       0.85431656      -0.51900859       0.02500640      -0.04380725      -0.04016754      -5.93668175
Te      11.27540406       3.87964871      19.45372956  T       1.03344984      -1.44809988      -0.03323717       0.02927973      -0.01718548      -0.03693163      -5.10029221
O        8.01446210       1.09934060      22.37412871  T       0.41131762       1.11585533       0.74921649      -0.04641506       0.01042420      -0.06305295      -8.87806988
H        7.95114220       1.17059160      23.33666843  T       0.04287141       0.31392330       0.24472879      -0.03019877       0.06650412       0.02097857      -2.99826860
