56
Lattice="13.63385009765625 0.0 8.000000134899068e-16 1.3000000153036537e-15 7.871507167816162 -3.780327320098877 0.0 0.0 34.022945404052734" Properties=species:S:1:pos:R:3:move_mask:L:1:momenta:R:3:forces:R:3:energies:R:1 adsorbate_info="_JSON {\"site\": {\"coordinates\": [6.81692505, 2.06025004, 19.42668343], \"connectivity\": 1, \"topology\": [24], \"n_vector\": [0.044522182655707655, -0.0019439457599366757, 0.9990065046467187], \"h_vector\": [1.0, 0.0, 0.0], \"site_formula\": {\"Sc\": 1}}, \"smiles\": \"Cl\", \"mdf\": 1.70195767766959, \"adsorbate_formula\": \"HO\"}" bond_change_count=0 energy=-338.9990539550781 stress="0.0003938408335670829 2.5470174023212167e-06 9.379479024573811e-07 2.5470174023212167e-06 0.00038432382280007005 -8.455070928903297e-05 9.379479024573811e-07 -8.455070928903297e-05 0.00018817358068190515" free_energy=-338.9990539550781 pbc="T T F"
Sc       6.81692505       2.06025004      11.86602783  F       0.00000000       0.00000000       0.00000000       0.00053227       0.40345764      -0.12644404      -6.56993008
Sc       0.00000000       5.99600363      11.86602783  F       0.00000000       0.00000000       0.00000000      -0.00510242       0.11409523       0.07737428      -6.34469318
Sc       1.62423372       0.93775177      11.86602783  F       0.00000000       0.00000000       0.00000000      -0.30969867      -0.11343981       0.49300313      -5.98239708
Sc       8.44115829       4.87350512      11.86602783  F       0.00000000       0.00000000       0.00000000      -0.78115755      -0.39329141      -0.07878378      -6.34338522
Sc       5.19269133       4.87350512      11.86602783  F       0.00000000       0.00000000       0.00000000       0.77675319      -0.38770851      -0.08378448      -6.34286118
Sc      12.00961685       0.93775177      11.86602783  F       0.00000000       0.00000000       0.00000000       0.30746651      -0.11528230       0.49819013      -5.98562527
Sc       6.81692505       7.02371693       9.97586441  F       0.00000000       0.00000000       0.00000000      -0.00105319      -0.34664711      -0.22130921      -6.72217131
Sc       0.00000000       3.08796358       9.97586441  F       0.00000000       0.00000000       0.00000000      -0.00069344       0.32068175       0.94480723      -4.81782055
Sc       4.14267015       2.39177179      13.75619125  F       0.00000000       0.00000000       0.00000000      -0.14665245      -0.44951361      -0.09718072      -6.62429810
Sc      10.95959568       6.32752514       9.97586441  F       0.00000000       0.00000000       0.00000000       0.16429722       0.38502863       0.01411349      -6.13117838
Sc       2.67425489       6.32752514       9.97586441  F       0.00000000       0.00000000       0.00000000      -0.16565195       0.39185685       0.02678114      -6.13205051
Sc       9.49117947       2.39177179      13.75619125  F       0.00000000       0.00000000       0.00000000       0.12951349      -0.46765107      -0.11649927      -6.62286139
Sc       6.81333809       2.15398491      15.57986843  T      -0.26117219       0.98919841       0.16318376       0.01567246       0.00640266       0.01803737      -6.35823345
Sc       0.00390599       5.97221001      15.49301795  T      -0.40656545       1.18578469       1.42527274       0.00819834       0.01357961      -0.00256768      -6.11045504
Sc       1.50460617       0.87773670      15.56830154  T      -0.91927248      -0.68355711       0.93201464       0.02683029       0.00594307      -0.00353503      -6.28795385
Sc       8.46311098       4.96382657      15.47432105  T      -0.17571885      -1.03508544      -0.30718998      -0.01118767      -0.02248254       0.02398854      -6.29288292
Sc       5.17517606       4.96198906      15.49559689  T       0.55275662      -0.34736234       1.67240343       0.00366472       0.00009663       0.00191500      -6.29514360
Sc      12.11064160       0.88303094      15.54705521  T       2.25121417      -0.75643577       0.10106908      -0.01923040       0.00408867       0.01192221      -6.28282738
Sc       6.81692505       7.02371693      13.75619125  F       0.00000000       0.00000000       0.00000000      -0.00689756       0.37113631      -0.22281922      -6.40842247
Sc       0.00000000       3.08796358      13.75619125  F       0.00000000       0.00000000       0.00000000      -0.01481457      -0.20729601      -0.62981510      -6.58952904
Sc       4.00107213       2.40750580      17.42011706  T       0.82653797       0.94085248       0.47647474       0.02028750      -0.02600412       0.00441391      -6.57231283
Sc      10.95959568       6.32752514      13.75619125  F       0.00000000       0.00000000       0.00000000       0.05260383      -0.09366457      -0.37165245      -6.54652691
Sc       2.67425489       6.32752514      13.75619125  F       0.00000000       0.00000000       0.00000000      -0.00327472      -0.10822858      -0.35586959      -6.52007580
Sc       9.60122045       2.39984677      17.43155249  T       1.17215502       0.32530622       0.63147399       0.03928329       0.01956627      -0.01426714      -6.59452152
Sc       6.80610236       2.25811462      18.81504386  T       1.14917537       0.14866590      -3.24490503      -0.03665639      -0.04197855      -0.06293356      -5.79547215
Sc       0.02578621       5.68454372      19.23682099  T       0.16315034      -0.11974442      -2.63750549      -0.02779633      -0.02531673       0.01875408      -5.60391426
Sc       1.53851324       0.97422195      19.25055890  T      -0.56938139      -1.00188024      -0.65572303      -0.00041915      -0.03232393       0.00906202      -6.38580179
Sc       8.38303408       4.99781216      18.81694889  T      -0.02329514       0.58873079      -0.90745119       0.01703419      -0.00278813       0.00457169      -5.85385895
Sc       5.23407074       4.96557288      18.86600981  T       0.66634451       0.78517731      -1.47273515      -0.01567209       0.03794860      -0.07059409      -6.13266468
Sc      12.10892373       0.98090773      19.29091780  T       1.65123292      -0.58380446      -0.15136218       0.00334738      -0.02607365      -0.01137407      -6.39560223
Sc       6.79746470       7.45419851      17.22276128  T      -0.15728266       0.50013007      -0.12415605      -0.01703805      -0.04239476       0.00881174      -6.41083479
Sc      -0.01937129       3.17649566      17.37116808  T       0.59815970       0.17662598      -0.74170237       0.02308277       0.00037394      -0.00247549      -6.51292419
Sc       4.94023298       2.38977287      21.00386707  T       2.48103944      -0.04324853      -2.15661024      -0.04141974      -0.01917323      -0.00525057      -6.51829290
Sc      11.21274067       6.20731010      17.36935261  T       0.16667687      -0.03842836      -2.10537811       0.00977191      -0.03218023       0.01705854      -6.27657366
Sc       2.45307305       6.21628267      17.34911888  T       0.37398631      -1.48962245      -1.40075753      -0.00646952      -0.02372470       0.04448092      -6.25862265
Sc       8.64107382       2.29695689      21.09376961  T      -0.03272160      -1.26817867      -0.76071633       0.01113129      -0.01950538      -0.03744239      -6.78000975
Ni       6.81692505       3.93575358       9.97586441  F       0.00000000       0.00000000       0.00000000      -0.00086529       0.93847430       1.35680890      -3.83187103
Ni       0.00000000       0.00000000      13.75619125  F       0.00000000       0.00000000       0.00000000      -0.00039143      -0.00685560      -0.33349645      -5.81053257
Ni       6.81692505       3.93575358      13.75619125  F       0.00000000       0.00000000       0.00000000      -0.01032797      -0.03734836      -0.26015383      -6.14611959
Ni      -0.03790387      -0.01117747      17.48348833  T       0.00355562      -0.23602587       0.11611388       0.03080945       0.01063214       0.00951600      -6.17797232
Ni       6.82784544       4.17842558      17.15010405  T       0.67192611       1.13857528       0.22590377       0.02857596      -0.00209560       0.01321498      -6.03932238
Ni       0.01979286      -0.50993376      21.21977807  T      -1.17499828       0.29255572       0.14840580      -0.00764918      -0.04470116       0.00982144      -5.17188406
Te       2.27230835       3.93575358      11.86602783  F       0.00000000       0.00000000       0.00000000      -0.25178897      -0.05580060      -0.50808847      -5.57465553
Te       9.08923340       0.00000000      11.86602783  F       0.00000000       0.00000000       0.00000000       0.00145826       0.14883670       0.17823273      -4.62275171
Te       4.54461670       0.00000000      11.86602783  F       0.00000000       0.00000000       0.00000000      -0.00256101       0.14926383       0.17357239      -4.62091732
Te      11.36154175       3.93575358      11.86602783  F       0.00000000       0.00000000       0.00000000       0.25137949      -0.05567148      -0.51192087      -5.57559109
Te       2.23835005       3.87605122      15.53495374  T      -2.09580391      -0.71210372      -0.72006863       0.02157359      -0.02397313       0.01630776      -6.07913971
Te       9.10021680      -0.01299018      15.62238025  T       0.39750756      -0.50490775       1.01376382       0.00459532       0.00745478       0.00889914      -5.96434975
Te       4.52839686      -0.01059682      15.61841533  T       0.07343310      -0.67108484       0.50554579      -0.00848214      -0.01111038       0.00850683      -5.95939350
Te      11.38268120       3.87788264      15.53440622  T       0.71593239      -1.24776734       0.81778158      -0.03527472      -0.00660355       0.02739414      -6.07759285
Te       2.48807779       3.84328962      19.52875889  T      -1.53458798      -0.27983215      -0.81285989       0.01122572      -0.02198538       0.00243357      -5.06759691
Te       9.24555341       0.07197418      19.37507531  T       0.76985903       3.16831091      -0.70228707      -0.00747476      -0.01533753      -0.00510884      -5.76319122
Te       4.41624556       0.09230628      19.35630908  T       1.04160872      -1.01899086      -0.94665006      -0.02686424      -0.02016743      -0.00211791      -5.80903721
Te      11.15304315       3.86041790      19.51224056  T       0.88063468      -2.71244642       0.44068906      -0.00859910      -0.01082474       0.02819112      -5.03256321
O        6.87203539       1.81237511      21.19804281  T      -2.43685632      -1.86606007       4.76767934      -0.00447452       0.03036627       0.01113555      -9.28257656
H        6.09590659       3.74737897      20.09747233  T      -0.32431812       1.29462491       0.68540450       0.01655063      -0.05014026       0.07416423      -3.98927307
