56
Lattice="13.63385009765625 0.0 8.000000134899068e-16 1.3000000153036537e-15 7.871507167816162 -3.780327320098877 0.0 0.0 34.022945404052734" Properties=species:S:1:pos:R:3:move_mask:L:1:momenta:R:3:forces:R:3:energies:R:1 adsorbate_info="_JSON {\"site\": {\"coordinates\": [0.0, 0.0, 21.31684685], \"connectivity\": 1, \"topology\": [41], \"n_vector\": [0.2534637267433024, 0.5899681430736401, 0.7666118505369177], \"h_vector\": [1.0, 0.0, 0.0], \"site_formula\": {\"Ni\": 1}}, \"smiles\": \"Cl\", \"mdf\": 1.7019576776695904, \"adsorbate_formula\": \"HO\"}" bond_change_count=0 energy=-336.09930419921875 stress="0.0003345630248077214 4.991863988834666e-06 -2.291472628712654e-05 4.991863988834666e-06 0.00027331782621331513 -5.179968866286799e-05 -2.291472628712654e-05 -5.179968866286799e-05 0.0001587787555763498" free_energy=-336.09930419921875 pbc="T T F"
Sc       6.81692505       2.06025004      11.86602783  F       0.00000000       0.00000000       0.00000000      -0.00026113       0.40198496      -0.13310935      -6.56758165
Sc       0.00000000       5.99600363      11.86602783  F       0.00000000       0.00000000       0.00000000      -0.01740194       0.11971770       0.04786376      -6.34685135
Sc       1.62423372       0.93775177      11.86602783  F       0.00000000       0.00000000       0.00000000      -0.30772957      -0.11847287       0.50634480      -5.97959805
Sc       8.44115829       4.87350512      11.86602783  F       0.00000000       0.00000000       0.00000000      -0.77897453      -0.38763976      -0.10814500      -6.33827114
Sc       5.19269133       4.87350512      11.86602783  F       0.00000000       0.00000000       0.00000000       0.78098774      -0.39902470      -0.09716484      -6.33913279
Sc      12.00961685       0.93775177      11.86602783  F       0.00000000       0.00000000       0.00000000       0.30249801      -0.11946566       0.51129115      -5.98746204
Sc       6.81692505       7.02371693       9.97586441  F       0.00000000       0.00000000       0.00000000       0.00637664      -0.34587407      -0.21286607      -6.72108889
Sc       0.00000000       3.08796358       9.97586441  F       0.00000000       0.00000000       0.00000000      -0.00340611       0.32060078       0.94254112      -4.81558609
Sc       4.14267015       2.39177179      13.75619125  F       0.00000000       0.00000000       0.00000000      -0.20803329      -0.42699248      -0.02497814      -6.59468317
Sc      10.95959568       6.32752514       9.97586441  F       0.00000000       0.00000000       0.00000000       0.13967551       0.38692516       0.01198697      -6.12281084
Sc       2.67425489       6.32752514       9.97586441  F       0.00000000       0.00000000       0.00000000      -0.15385877       0.38215426      -0.00023633      -6.12934685
Sc       9.49117947       2.39177179      13.75619125  F       0.00000000       0.00000000       0.00000000       0.11902285      -0.45542860      -0.06704603      -6.61995173
Sc       6.79842407       2.13901145      15.61565776  T       0.64560095       0.91271907       0.11791395       0.00337693       0.01947246      -0.01214283      -6.39245510
Sc      -0.00545676       6.03360518      15.54828653  T       0.89982735       2.91622891       0.90523867      -0.00523464       0.05592448       0.01162282      -6.25361538
Sc       1.52293698       0.89372900      15.53130388  T      -1.68358538      -0.15317597      -0.92650647      -0.04368645       0.02531804       0.02377018      -6.31376505
Sc       8.41176077       4.84825356      15.52088600  T      -0.62009026      -0.60292583       1.05648394      -0.00724851      -0.00119084       0.01306629      -6.28659916
Sc       5.17053486       4.84001153      15.54798670  T      -0.06316050      -0.11601027      -0.16274162       0.02917072      -0.02426954       0.00178825      -6.30746555
Sc      12.08770240       0.89178800      15.53005470  T       0.94796500      -0.62706773       0.10924502       0.04530820       0.00034986       0.00815938      -6.29456234
Sc       6.81692505       7.02371693      13.75619125  F       0.00000000       0.00000000       0.00000000      -0.09456567       0.05933671      -0.25098163      -6.47588730
Sc       0.00000000       3.08796358      13.75619125  F       0.00000000       0.00000000       0.00000000       0.00264124      -0.13029474      -0.55788636      -6.59321785
Sc       3.95369515       2.38117360      17.52234013  T      -1.88943711       0.27926912       0.65271833       0.03290391      -0.02554776       0.02623504      -6.59030247
Sc      10.95959568       6.32752514      13.75619125  F       0.00000000       0.00000000       0.00000000      -0.11454341      -0.19640730      -0.38902509      -6.54258156
Sc       2.67425489       6.32752514      13.75619125  F       0.00000000       0.00000000       0.00000000      -0.00622895      -0.18259194      -0.36885154      -6.55649281
Sc       9.57640018       2.44041340      17.49565916  T      -0.87440911       1.98088679       1.54732424      -0.00420481       0.01116982      -0.01018053      -6.50657129
Sc       6.78558737       2.20253345      18.97006563  T      -0.16976456       0.45451716      -0.61379414       0.02923518       0.00728890      -0.00747961      -5.82865286
Sc       0.15447016       6.08741015      18.98113968  T       0.52843119      -1.38884675       0.66407227       0.01432312      -0.01061934      -0.01939645      -6.82928371
Sc       1.46745957       0.86334226      19.34215473  T      -0.99177235      -0.17729025      -1.17923270      -0.00394269       0.02377111      -0.02097142      -6.36090660
Sc       8.38452368       4.91432079      19.00158187  T      -1.40144264      -0.51048278      -0.92006132       0.05900246      -0.00585745       0.04388384      -5.89587212
Sc       5.18652832       4.82750055      19.00220059  T       0.46929801      -0.98792222      -0.43817826      -0.00949785       0.00281005       0.04132494      -5.84130812
Sc      11.93983294       0.98355600      19.08124717  T       1.64092370      -0.83168207      -1.65202216       0.01983346      -0.01598704       0.00681257      -6.25009632
Sc       6.73648049       7.00400899      17.36170167  T       1.57684368      -0.62384436      -0.08335254      -0.00882389      -0.01662619       0.01678967      -5.93126202
Sc      -0.03136193       3.17716594      17.39537809  T      -0.35961685       0.65805013      -0.10714254      -0.00791276      -0.02054423      -0.01850019      -6.67132044
Sc       4.34010186       2.41176088      20.81051242  T       1.35679891      -1.26260124      -2.12004814       0.00635581      -0.03922100       0.04169327      -5.28291130
Sc      11.01094790       6.30939169      17.29079894  T       1.69752238      -0.07439617      -1.07484509      -0.00897466      -0.03158787      -0.00327849      -6.41470003
Sc       2.72394291       6.34001503      17.44447403  T      -1.29142626       0.79359819       0.46864695       0.00329145       0.01251281       0.00639409      -6.72267389
Sc       9.32244574       2.45077886      20.76223860  T       0.18538496      -0.97207889      -1.28943525       0.06379990       0.00991251       0.00629073      -5.25684881
Ni       6.81692505       3.93575358       9.97586441  F       0.00000000       0.00000000       0.00000000      -0.00042625       0.93937814       1.36585677      -3.83036709
Ni       0.00000000       0.00000000      13.75619125  F       0.00000000       0.00000000       0.00000000      -0.00628759       0.01763868      -0.34424162      -5.81089878
Ni       6.81692505       3.93575358      13.75619125  F       0.00000000       0.00000000       0.00000000      -0.04378615      -0.11572473      -0.30599141      -6.14919758
Ni      -0.00750946      -0.02665978      17.44812328  T       0.28162848      -0.35652703       1.15871403       0.00244809      -0.01486095      -0.00187719      -6.18088388
Ni       6.81326191       4.14046776      17.35217507  T       0.33893277      -0.40909985       1.88905084       0.01676627       0.01070586      -0.04716126      -6.15521860
Ni      -0.51619473      -0.12790641      20.95480749  T      -2.60194128       0.67105049      -4.25402421      -0.00663238      -0.00569528      -0.01673236      -4.82625008
Te       2.27230835       3.93575358      11.86602783  F       0.00000000       0.00000000       0.00000000      -0.24933875      -0.05713123      -0.47864804      -5.59156942
Te       9.08923340       0.00000000      11.86602783  F       0.00000000       0.00000000       0.00000000      -0.00157080       0.15277399       0.17940867      -4.62500477
Te       4.54461670       0.00000000      11.86602783  F       0.00000000       0.00000000       0.00000000       0.00201377       0.16025092       0.17722318      -4.62156916
Te      11.36154175       3.93575358      11.86602783  F       0.00000000       0.00000000       0.00000000       0.26149794      -0.04838184      -0.50477445      -5.57818747
Te       2.22978651       3.93728153      15.59673694  T      -1.25515476      -0.94094196       2.47160228       0.03087189       0.01858982       0.01178175      -6.00551891
Te       9.09589212       0.00273623      15.62830543  T      -0.70110321       0.87018630      -0.15181927      -0.02135361       0.01187510      -0.00104066      -5.94869518
Te       4.52739100      -0.01212813      15.62026257  T      -3.55799271       2.36981787       0.61134355       0.00265615       0.01836770       0.01618329      -5.93918133
Te      11.36727591       3.90215413      15.54963966  T      -0.55653560       0.05628669      -1.22054054       0.02750139       0.01455657      -0.01941987      -6.05308580
Te       2.14018170       3.79002770      19.40341681  T       2.10855435      -1.37860761       0.18451000       0.02763161       0.03032821       0.01385406      -4.99479771
Te       9.02443888      -0.00890646      19.32777399  T      -0.44875866       0.53737099       2.01883288       0.02615899      -0.01168764       0.00912960      -6.01214981
Te       4.48885929      -0.02224979      19.31172919  T       2.13067924       0.07248301       1.21344234       0.02856591       0.01220082      -0.03512567      -5.98867893
Te      11.43367351       4.03919770      19.38491966  T      -0.12023822      -0.97953337       3.29918227      -0.01447822      -0.00215136       0.00894159      -5.13275623
O        1.88599467      -0.84552249      23.03561656  T       1.89062147       0.48237187       5.25358160       0.00486809      -0.04835182      -0.00471511      -8.62154675
H        2.25283546      -0.28093929      23.73015594  T       0.90931291      -0.05122833      -0.31567314       0.03961982       0.03171316       0.01172999      -3.07204866
