75
Lattice="8.208702087402344 0.0 -0.6319061517715454 -3.009857416152954 14.187996864318848 -0.7898827195167542 0.0 0.0 30.647449493408203" Properties=species:S:1:pos:R:3:move_mask:L:1:momenta:R:3:forces:R:3:energies:R:1 adsorbate_info="_JSON {\"site\": {\"coordinates\": [0.54154634, 3.54699922, 19.00655365], \"connectivity\": 1, \"topology\": [13], \"n_vector\": [0.13167348587825295, -0.0989302425909398, 0.9863442098058707], \"h_vector\": [1.0, 0.0, 0.0], \"site_formula\": {\"In\": 1}}, \"smiles\": \"Cl\", \"mdf\": 1.724295665837533, \"adsorbate_formula\": \"HNO\"}" bond_change_count=0 energy=-554.0033569335938 stress="0.00040706817526370287 1.0050955097540282e-05 -3.021140582859516e-05 1.0050955097540282e-05 0.00019720934506040066 -1.992588659049943e-05 -3.021140582859516e-05 -1.992588659049943e-05 0.00019008302479051054" free_energy=-554.0033569335938 pbc="T T F"
In       4.09865046       3.54699922      11.58165550  F       0.00000000       0.00000000       0.00000000      -0.03497761      -0.03243214      -0.48875254      -2.27170825
In       7.10850811       3.54699922      12.37153816  F       0.00000000       0.00000000       0.00000000      -0.34539959      -0.01807058      -0.07700022      -3.18094301
In       1.08879316       3.54699922      10.79177284  F       0.00000000       0.00000000       0.00000000       0.12372314      -0.01429497      -0.66258836      -2.20965385
In       2.36570239      10.64099789      12.05558491  F       0.00000000       0.00000000       0.00000000       0.00016533       0.02440362      -0.40450522      -3.13136292
In       4.55468941      10.64099789       9.84391308  F       0.00000000       0.00000000       0.00000000      -0.33260664       0.03327577      -1.00568199      -2.05384374
In      -0.64415509      10.64099789      11.26570225  F       0.00000000       0.00000000       0.00000000       0.28412631       0.02526657      -0.53302580      -2.69824767
In       4.86425581       3.53811890      14.69794314  T       0.38424655      -1.19495954       2.77611844      -0.02973292       0.00978991       0.02199657      -3.20582962
In      -0.38963847       3.53929243      16.15721509  T       0.34436892      -1.40457457      -0.57065533      -0.00970484       0.02055334      -0.02866598      -3.16684747
In       1.86307923       3.53882059      14.12753263  T       0.38782669      -1.18277877       4.87159033       0.02281317       0.00916703      -0.04291314      -3.17539430
In       3.20556617      10.61614846      15.03444320  T      -1.73847397       1.13376177      -1.23006650      -0.01893685       0.03990277       0.01227334      -3.15792918
In       5.37555981      10.64099789      12.84546757  F       0.00000000       0.00000000       0.00000000       0.14075965       0.09952540       0.20400514      -3.17863989
In       0.19599429      10.61035659      14.28329273  T       1.87097899      -1.39454224       0.21022176       0.00444596       0.00756278      -0.01221325      -3.17109919
In       5.56354097       3.55276687      17.65824845  T      -1.84613493       0.47462189       1.64518568      -0.00683283       0.08077163       0.02809083      -3.06798220
In       0.40381970       3.94064272      19.66073158  T       1.11197384      -5.59049188      -5.65467878      -0.01577916       0.01631835      -0.02344188      -2.53261280
In       2.61689720       3.54948477      17.27508142  T      -0.01607489      -0.64920718      -0.59993684      -0.02647606       0.03666994       0.02215129      -3.01241064
In       4.22407691      10.44329724      18.44127771  T       0.85051285       1.68337688       2.77197797      -0.00136124       0.00938999      -0.02608730      -2.25329280
In      -1.97216194      10.63559301      16.50326257  T       1.61219946       1.10170892      -0.37948993       0.00634757       0.03404576      -0.00304871      -3.15029907
In       1.03311325      10.71702471      17.55394382  T      -0.47415693       0.93609110      -0.27779400      -0.00295836       0.00993622      -0.00866580      -2.45871806
N        3.64681278      -0.00618753      13.25583027  T       0.09562466      -0.30410627      -0.56979298       0.03018057       0.00388691      -0.02821394     -11.82722473
N        5.83159876       0.00000000      11.10772610  F       0.00000000       0.00000000       0.00000000       0.48918778       0.03885933       1.47085166      -9.56761265
N        0.63275415       0.00000000      12.52951431  F       0.00000000       0.00000000       0.00000000      -0.22628748      -0.21699199      -0.89071172     -11.83226967
N        2.82174134       7.09399843      10.31784344  F       0.00000000       0.00000000       0.00000000      -1.47122586       1.56550908       3.79347229      -8.03984451
N        5.83159876       7.09399843      11.10772610  F       0.00000000       0.00000000       0.00000000       0.72952831       0.01096228       1.73104274      -9.43499088
N        0.63275415       7.09399843      12.52951431  F       0.00000000       0.00000000       0.00000000      -0.35261697      -0.12923759      -1.01631451     -11.77106953
N        4.44776900      -0.05137825      16.22004375  T      -0.14124420      -0.05439026       0.12515404      -0.01539622      -0.03837057      -0.01689965     -11.58615112
N        6.64739909      -0.01023428      14.07160235  T      -0.21510940       0.03775917       0.24646446       0.00037141       0.03567186      -0.01898451     -11.67744637
N        1.43287748       0.01244062      15.44602136  T      -0.16298744       0.20126667      -0.26290606      -0.04723142      -0.01990869       0.01713624     -11.62528324
N        3.65201629       7.07209912      13.27599734  T       0.11260226       0.19512741      -0.24436502       0.01128378       0.02976199      -0.07113627     -11.68174744
N        6.65570419       7.09150604      14.06718329  T       0.00422377      -0.36668917      -0.30218892      -0.02329198      -0.02399097       0.04068808     -11.66012096
N        1.44384402       7.08164665      15.44647582  T       0.16653790       0.04884929      -0.24924336       0.05245732       0.02014707       0.01282524     -11.51747322
N        5.39189308       0.17762993      18.87541760  T       1.34640231       1.81557289      -3.27635046       0.01572246       0.00888270      -0.02069302      -8.75684071
N        7.49557928       0.01255240      17.03640483  T       0.01275916      -0.21545847       0.47731979       0.00885506       0.00651373       0.00074247     -11.69676781
N        2.22942838       0.03124024      18.22334323  T      -0.45486007      -0.09842182      -1.67421485      -0.00052660       0.00824190      -0.01583154      -9.88525772
N        4.42184258       7.14296696      16.22107707  T      -0.15462562      -0.00152919       0.12552843      -0.03130585       0.03652488      -0.04233958     -11.73044968
N       -0.68490490       7.10969646      17.63762467  T       0.45390816       0.14682936       0.34637618      -0.02320707      -0.04170971       0.03870973     -11.81520271
N        2.19703825       7.08575288      18.25659101  T      -1.10970939       0.01660622      -1.77299832      -0.02799929       0.00463647      -0.02411088      -9.90669632
Ti       4.09865046       8.21739006      11.58165550  F       0.00000000       0.00000000       0.00000000      -0.15819734      -2.35523939      -1.52150941      -8.48212051
Ti      -1.10019410       8.21739006      13.00344467  F       0.00000000       0.00000000       0.00000000      -0.19306228      -0.50702155      -0.66207629      -8.39731312
Ti       1.08879316       8.21739006      10.79177284  F       0.00000000       0.00000000       0.00000000       1.98167324      -1.38959002       0.27053967      -7.36260080
Ti       2.36570239       5.97060633      12.05558491  F       0.00000000       0.00000000       0.00000000       0.12139929       1.18010831      -1.38834786      -8.40799427
Ti       5.37555981       5.97060633      12.84546757  F       0.00000000       0.00000000       0.00000000       0.25380367       0.45922345      -0.77993929      -8.37975883
Ti      -0.64415509       5.97060633      11.26570225  F       0.00000000       0.00000000       0.00000000      -0.91630054       1.19311857       1.26522434      -7.28288841
Ti       2.36570239       1.12339199      12.05558491  F       0.00000000       0.00000000       0.00000000      -0.44571316      -0.47811532       0.51347470      -7.68024826
Ti       5.37555981       1.12339199      12.84546757  F       0.00000000       0.00000000       0.00000000       0.21744211      -0.49608994      -0.72195625      -8.37815666
Ti       7.56454706       1.12339199      10.63379574  F       0.00000000       0.00000000       0.00000000      -0.85905170      -1.22238159       1.16982412      -7.30636215
Ti       4.09865046      13.06460476      11.58165550  F       0.00000000       0.00000000       0.00000000      -0.00784247       0.44390085      -0.71210814      -8.38530254
Ti      -1.92106426      13.06460476      10.00189018  F       0.00000000       0.00000000       0.00000000       0.29564404       0.45205522       1.42824674      -6.49683857
Ti       1.08879316      13.06460476      10.79177284  F       0.00000000       0.00000000       0.00000000       0.80980539       0.87310356       0.16115776      -7.40534592
Ti       4.92361523       8.21748708      14.49742394  T      -0.13818027      -1.23155193      -0.77383785      -0.00676243       0.00104763      -0.01028955      -8.21951675
Ti      -0.26287519       8.20510841      15.94197487  T      -0.97724157      -0.69676490      -0.10510932       0.00199453       0.01626624      -0.01930150      -8.18680763
Ti       1.91758687       8.19760431      13.70588329  T      -0.49366683      -0.32429790       0.15347157      -0.00039689       0.02207600      -0.00249179      -8.24157333
Ti       3.19119237       5.98407683      15.00781830  T       0.73892575      -0.23628007      -0.08448053      -0.04918727      -0.00134749      -0.00418732      -8.22329235
Ti       6.15453120       5.98965247      15.80247829  T      -0.33280563       1.48645147       0.72797874      -0.01149460      -0.03858627      -0.02512184      -8.22065067
Ti       0.15773080       5.96710938      14.19134387  T       0.85206657       0.83743755      -0.58364612       0.00971710       0.00057977      -0.00986934      -8.24177361
Ti       3.19309422       1.09579702      14.97841779  T       0.59147442      -1.37796564      -1.10873626       0.02855027       0.04714356      -0.00667599      -8.17942619
Ti       6.16838087       1.10402856      15.77792642  T       0.28404365      -0.77481495       1.49178025       0.03040019       0.02285761       0.02707721      -8.14652634
Ti       0.15083003       1.11229682      14.17615137  T      -0.52406943      -0.65338635      -0.13298899       0.00898983       0.01370630       0.00636137      -8.25651836
Ti       4.91330789      13.05794490      14.54146209  T       0.22126140       0.65482580      -0.10456298       0.03962629       0.00384748      -0.02302843      -8.16945457
Ti      -1.10019410      13.06460476      13.00344467  F       0.00000000       0.00000000       0.00000000      -0.00529564       0.02091998      -0.98903131      -8.28439331
Ti       1.90228635      13.04927538      13.69326455  T      -0.24919361      -0.18034428      -0.60984284      -0.01294842       0.00756171       0.02091528      -8.24727821
Ti       5.78333309       8.23131955      17.30788307  T      -0.48651251      -0.76496139      -1.41982571      -0.04707963       0.02967651      -0.03673688      -7.61378765
Ti       0.64041244       8.06435375      18.77506505  T       1.11191264      -1.89374361      -3.00923289       0.02303583      -0.00255939      -0.04286928      -7.60314274
Ti       2.68819968       8.25076708      16.66590827  T      -0.60909109      -1.00425983       0.26516392       0.02072131       0.01961061      -0.05101643      -8.41673279
Ti       3.98048503       6.05556074      17.98595066  T      -0.98165185       1.23649000      -1.24215313       0.03684476      -0.00057536       0.03551570      -8.71860027
Ti      -1.50048000       5.93495885      19.22673119  T      -0.29449824      -1.60958770       1.71557182      -0.01503408      -0.03404075       0.04208612      -7.86686754
Ti       0.94926164       5.93985230      17.13986735  T      -0.84298886       0.68369242      -0.73845078      -0.03568792      -0.05558738      -0.03983373      -8.47437000
Ti       3.94938052       1.00703740      17.89332082  T      -0.61618286      -3.73764818       0.74017154      -0.00421409       0.02964179       0.03823891      -8.29990768
Ti       6.91683017       1.18154520      18.55810847  T      -1.02923041      -2.51400535      -1.45234231      -0.04775893      -0.04734523       0.02556139      -7.72290182
Ti       0.96415646       1.15859795      17.07705573  T      -0.79095239      -0.63561588       0.94156087      -0.01632620       0.00607772       0.01811317      -8.30753231
Ti      -2.33437050      13.12364794      17.89785104  T       1.66048203       2.32673808      -2.46242852      -0.02612003       0.01752970       0.03528038      -7.50517750
Ti      -0.30992164      13.02444776      15.83827007  T      -1.15023434       0.68451134      -0.17753325       0.01324109      -0.00025665       0.01016726      -8.36572742
Ti       2.75894688      13.04114994      16.61501478  T      -0.47249929       1.62209636       0.52752390       0.04229260      -0.02395509       0.03052287      -8.41940975
N       -2.17125387       5.73238300      21.00062835  T      -0.03978997       4.90952428       5.17375481       0.04063588       0.01626532       0.01866108      -7.97013187
O       -3.24198496       5.76852512      20.20736649  T      -1.26273011       3.22497564      -0.74916885      -0.01571912       0.04957879      -0.05353534      -5.65721512
H       -2.41888775       5.59660305      21.97257024  T      -0.44624615      -0.30423906       0.11886910       0.02226309       0.03562433       0.05079883      -3.39027166
