75
Lattice="8.208702087402344 0.0 -0.6319061517715454 -3.009857416152954 14.187996864318848 -0.7898827195167542 0.0 0.0 30.647449493408203" Properties=species:S:1:pos:R:3:move_mask:L:1:momenta:R:3:forces:R:3:energies:R:1 adsorbate_info="_JSON {\"site\": {\"coordinates\": [5.74039078, 8.21739006, 17.58476448], \"connectivity\": 1, \"topology\": [60], \"n_vector\": [-0.494833929904917, -0.7904577614822998, 0.3609929488608431], \"h_vector\": [1.0, 0.0, 0.0], \"site_formula\": {\"Ti\": 1}}, \"smiles\": \"Cl\", \"mdf\": 1.724295665837533, \"adsorbate_formula\": \"HNO\"}" bond_change_count=0 energy=-557.474365234375 stress="0.00041616655653342605 -7.405767973978072e-06 -3.837028634734452e-05 -7.405767973978072e-06 0.00019800214795395732 1.1930373148061335e-05 -3.837028634734452e-05 1.1930373148061335e-05 0.00020217979908920825" free_energy=-557.474365234375 pbc="T T F"
In       4.09865046       3.54699922      11.58165550  F       0.00000000       0.00000000       0.00000000      -0.00690661      -0.03733126      -0.56336480      -2.24078631
In       7.10850811       3.54699922      12.37153816  F       0.00000000       0.00000000       0.00000000      -0.37950462       0.03074665      -0.17155761      -3.16075706
In       1.08879316       3.54699922      10.79177284  F       0.00000000       0.00000000       0.00000000       0.11353369      -0.01801791      -0.73398191      -2.19192314
In       2.36570239      10.64099789      12.05558491  F       0.00000000       0.00000000       0.00000000      -0.01202717       0.06846955      -0.44437182      -3.12545276
In       4.55468941      10.64099789       9.84391308  F       0.00000000       0.00000000       0.00000000      -0.33392400       0.03287431      -0.99794710      -2.05710244
In      -0.64415509      10.64099789      11.26570225  F       0.00000000       0.00000000       0.00000000       0.28610504       0.02435313      -0.54162526      -2.69839191
In       4.86378785       3.56894087      14.67850484  T       2.32030257      -0.07212207       2.11688645       0.01367965       0.00462010       0.03451782      -3.16084290
In      -0.40026730       3.59309857      16.07333472  T       0.24238440      -1.13186436      -2.42225639       0.00114684      -0.00028345      -0.00090364      -3.12456417
In       1.86648153       3.56212509      14.07861653  T      -0.95279067       1.42400589       2.31919942       0.02709583       0.00020193       0.00493923      -3.15313768
In       3.20215830      10.65234857      15.00104835  T      -0.92229943      -0.90036405      -1.00220894       0.00796050       0.00837598       0.01539645      -3.16956997
In       5.37555981      10.64099789      12.84546757  F       0.00000000       0.00000000       0.00000000       0.14673507       0.13312832       0.18337847      -3.17372274
In       0.19004766      10.62466262      14.27689039  T      -0.66050370      -0.84827102      -0.50213891       0.01120268       0.00874969      -0.00227604      -3.16610718
In       5.57566728       3.47810393      17.61437209  T      -2.40255347      -0.88906915       1.18665713       0.02188718      -0.01562656       0.00466397      -2.72587705
In       0.52071449       3.75505490      19.45006800  T       2.05546121       0.90562354       1.01848539       0.01411310       0.01290280      -0.01679610      -2.21798563
In       2.62356857       3.64199726      17.16534976  T       0.23427334       0.49506959       2.08557868       0.01596874      -0.00856408      -0.00507949      -2.91105604
In       4.17236682      10.92808062      18.38281702  T      -0.27115993      -0.08734410       1.73741268       0.01408329      -0.02145846       0.02154438      -2.20056486
In      -1.97312218      10.69418896      16.48525168  T       0.57935920       2.02081241      -0.59471167      -0.00461804      -0.00558596       0.01121186      -3.15057278
In       1.02799073      10.82130496      17.50455961  T      -0.95080386       0.54356468      -0.27182499       0.01927439      -0.00706317       0.00082552      -2.48777580
N        3.64762421       0.00149630      13.25567213  T       0.03059989      -0.01924807      -0.19177313      -0.01046439      -0.01355073      -0.01903094     -11.82647133
N        5.83159876       0.00000000      11.10772610  F       0.00000000       0.00000000       0.00000000       0.48971745       0.03649805       1.47005630      -9.56743622
N        0.63275415       0.00000000      12.52951431  F       0.00000000       0.00000000       0.00000000      -0.22940233      -0.20696080      -0.88792700     -11.83103180
N        2.82174134       7.09399843      10.31784344  F       0.00000000       0.00000000       0.00000000      -1.47449148       1.56491089       3.79610133      -8.03599262
N        5.83159876       7.09399843      11.10772610  F       0.00000000       0.00000000       0.00000000       0.73252207       0.00716797       1.74156260      -9.43959141
N        0.63275415       7.09399843      12.52951431  F       0.00000000       0.00000000       0.00000000      -0.37463033      -0.13034140      -0.99177861     -11.76236725
N        4.45340342      -0.02349571      16.20945268  T      -0.09814565       0.05731145       0.32191877      -0.00072555      -0.02664938      -0.01925568     -11.53996277
N        6.64806392       0.01852672      14.07284402  T       0.06638806      -0.06176725      -0.03854197      -0.00141667       0.00162799      -0.00619434     -11.65130329
N        1.43201636       0.05173512      15.43907746  T       0.20403062      -0.08306235      -0.05877341       0.00504795      -0.01445448       0.01133100     -11.58661270
N        3.64591674       7.07238725      13.27626544  T       0.04262466      -0.05611272      -0.05313102       0.00560197      -0.00219227      -0.00600569     -11.67828178
N        6.63337905       7.10292798      14.08058736  T      -0.24435953       0.18054311       0.05014486      -0.00703755      -0.00771804      -0.01017112     -11.67872620
N        1.41615145       7.10822888      15.43822584  T      -0.15721840       0.22739522      -0.08568977       0.02584659      -0.02161059       0.01540766     -11.59428215
N        5.36705583       0.17164135      18.86666735  T       0.81023552       1.67339025      -3.07073195       0.01894598       0.01762753      -0.01665745      -8.74287796
N        7.49619532       0.06021218      17.01125863  T       0.11788917       0.30432521       1.07325581       0.01316105       0.02605647       0.00640616     -11.70649433
N        2.22917728       0.09451813      18.19261055  T      -0.83192328       0.35713986      -1.86514168      -0.02466469      -0.01778193       0.00895658      -9.89112377
N        4.41425198       7.17774548      16.25923102  T      -0.18665830       0.24311996      -0.07560484      -0.00510131      -0.00258136       0.00332831     -11.52310085
N       -0.75544925       7.14753344      17.71424825  T       0.75104952      -0.17153167       0.68335129       0.00650185      -0.02463989      -0.00712967     -11.64314270
N        2.17965274       7.16708145      18.26894329  T      -0.91521892       0.03689000      -1.93891434       0.00272904       0.00404635      -0.00857903      -9.88653088
Ti       4.09865046       8.21739006      11.58165550  F       0.00000000       0.00000000       0.00000000      -0.16696256      -2.36586475      -1.53361487      -8.48791790
Ti      -1.10019410       8.21739006      13.00344467  F       0.00000000       0.00000000       0.00000000      -0.25089887      -0.51349288      -0.61217892      -8.39030552
Ti       1.08879316       8.21739006      10.79177284  F       0.00000000       0.00000000       0.00000000       1.98782575      -1.38472557       0.25453436      -7.37049007
Ti       2.36570239       5.97060633      12.05558491  F       0.00000000       0.00000000       0.00000000       0.11716424       1.20949411      -1.35814917      -8.41544533
Ti       5.37555981       5.97060633      12.84546757  F       0.00000000       0.00000000       0.00000000       0.21029663       0.55854803      -0.70630014      -8.38153553
Ti      -0.64415509       5.97060633      11.26570225  F       0.00000000       0.00000000       0.00000000      -0.92877787       1.19590545       1.28655696      -7.28808832
Ti       2.36570239       1.12339199      12.05558491  F       0.00000000       0.00000000       0.00000000      -0.45753694      -0.45440501       0.48796654      -7.68301868
Ti       5.37555981       1.12339199      12.84546757  F       0.00000000       0.00000000       0.00000000       0.21638215      -0.39388096      -0.77815807      -8.39127350
Ti       7.56454706       1.12339199      10.63379574  F       0.00000000       0.00000000       0.00000000      -0.86817735      -1.21235919       1.15272057      -7.31578255
Ti       4.09865046      13.06460476      11.58165550  F       0.00000000       0.00000000       0.00000000      -0.00683461       0.50837415      -0.64567226      -8.38245773
Ti      -1.92106426      13.06460476      10.00189018  F       0.00000000       0.00000000       0.00000000       0.29807395       0.44220689       1.42788839      -6.49969339
Ti       1.08879316      13.06460476      10.79177284  F       0.00000000       0.00000000       0.00000000       0.81075382       0.87514758       0.17652749      -7.40869427
Ti       4.89884014       8.23081848      14.49876219  T      -0.28015802       0.27122920      -1.00753273       0.02659446       0.01549298      -0.03942601      -8.20373344
Ti      -0.29303096       8.23038435      15.95537808  T      -0.77397708      -1.40826296       0.42121500       0.00541742      -0.00164068      -0.00860402      -8.11170959
Ti       1.91511251       8.20982427      13.69921904  T       0.10985213      -0.82470468      -0.40325982      -0.00716335      -0.02098909      -0.01877420      -8.24013996
Ti       3.18260098       6.01078727      15.03993847  T      -1.19812179       0.03668349      -0.16570391      -0.04018819      -0.01530967      -0.02525371      -8.20874977
Ti       6.15851679       6.04027684      15.83963055  T       0.45412386       0.68392094       1.52407123       0.01289259       0.00430040      -0.01797444      -8.12442303
Ti       0.13982494       5.98418659      14.20517998  T      -0.88298487       0.01919668      -1.14575057       0.01145329       0.02361168      -0.02957292      -8.25464916
Ti       3.19746351       1.12818720      14.96827369  T       0.38317410      -1.09761948      -0.59934356      -0.00867184       0.00137523       0.00078978      -8.18865013
Ti       6.16590549       1.15590200      15.78989581  T      -0.24590409      -0.69292142       0.03395429      -0.02017444       0.00905769       0.00586345      -8.18745422
Ti       0.15187138       1.13230273      14.16560554  T      -0.76589468      -0.62338125      -0.05138547       0.01239061      -0.01933122      -0.01882911      -8.26727200
Ti       4.91969928      13.09279386      14.52364007  T      -0.13881085       0.89969160       1.88911246       0.02014141      -0.00002874       0.00664689      -8.19468880
Ti      -1.10019410      13.06460476      13.00344467  F       0.00000000       0.00000000       0.00000000      -0.00935476       0.15624413      -0.92860615      -8.28467274
Ti       1.90632018      13.06929782      13.69224805  T       0.01391715       0.27372967      -0.76333275      -0.00047069       0.00252399       0.01664221      -8.26105309
Ti       5.74712302       8.33334301      17.31727465  T       0.84909074       1.07703267      -4.42073776      -0.01362144       0.01643598      -0.01392106      -8.02811813
Ti       0.64708241       8.23123735      18.67485915  T       2.68025918      -0.80827361      -2.87597142      -0.00633960      -0.02522353       0.00881752      -7.41366434
Ti       2.64587469       8.30040322      16.59140498  T      -0.55399064      -1.61536673       0.64167047      -0.01963143      -0.01163132       0.01658211      -8.27450848
Ti       3.99462336       6.29841191      18.12464907  T      -0.75038769       2.19924824      -0.30341954      -0.04245019       0.02986610      -0.05523943      -8.98567772
Ti      -1.55389587       6.16786839      19.39232838  T      -3.07014912       1.40770461      -0.20602386       0.00686294      -0.00098979      -0.02477406      -8.20199108
Ti       0.91642169       6.00483189      17.15797426  T      -0.38493300       1.02578216       0.50966340      -0.00637228      -0.00836320       0.00152930      -8.34519482
Ti       3.95603595       1.04479080      17.88407514  T      -0.76030280      -3.15615653       1.43817598       0.03168795       0.01438417      -0.00792192      -8.36345482
Ti       6.91762524       1.16698922      18.59868852  T      -2.89235630      -1.60784868      -0.90004761      -0.03641357      -0.01031932      -0.05307136      -7.73209286
Ti       0.95586728       1.22691647      17.07983877  T      -0.41738605       0.51060632      -1.07604145       0.00358786       0.01303652       0.00469824      -8.39443493
Ti      -2.34574714      13.18316460      17.87307386  T       0.99565475       2.31154432      -1.45364076       0.00415835      -0.00659671       0.02932773      -7.48741055
Ti      -0.31051085      13.07135844      15.83061256  T       0.21287821       0.37400341       2.27580547       0.02785749       0.01777795      -0.00200325      -8.38764191
Ti       2.78624644      13.06653280      16.60052424  T       0.94098476       0.40916294       1.55006324      -0.02837001       0.02227505       0.03497981      -8.50239849
N        5.26719689       7.59917165      19.04764510  T      -0.10682422       0.31120018       2.25909147       0.00758393      -0.02366433       0.02941758      -9.41176605
O        5.12322683       5.05251482      19.09296456  T       1.76776715      -4.17925012      -1.09645561      -0.01069941      -0.01742864       0.02301869      -7.90585327
H        5.11041107       8.04066593      19.94872782  T       0.08570756       0.04302512       0.29085699      -0.00996045      -0.02975940       0.03454369      -3.79652333
