50
Lattice="10.06605052947998 -0.0 -6.000000233523199e-16 2.9999999050033628e-15 10.486835479736328 4.460142135620117 -0.0 3.79999986555371e-15 31.220993041992188" Properties=species:S:1:pos:R:3:move_mask:L:1:momenta:R:3:forces:R:3:energies:R:1 adsorbate_info="_JSON {\"site\": {\"coordinates\": [-3.982666162283651e-08, 7.48846563, 20.914104463333334], \"connectivity\": 3, \"topology\": [2, 3, 19], \"n_vector\": [-0.058201068214254095, 0.9014880849544528, 0.4288727880664303], \"h_vector\": [0.46718961970315037, 0.6293418639013417, -0.6210174535251088], \"site_formula\": {\"Zr\": 3}}, \"smiles\": \"S1S\", \"mdf\": 1.7116636221265997, \"adsorbate_formula\": \"HO\"}" bond_change_count=0 energy=-348.7107238769531 stress="0.00046108433161862195 -6.271950496739009e-07 -2.2304197955236305e-06 -6.271950496739009e-07 0.0004268863413017243 0.00013669452164322138 -2.2304197955236305e-06 0.00013669452164322138 0.00015423567674588412" free_energy=-348.7107238769531 pbc="T T F"
Zr       1.66679064       3.78338290      19.52125950  T      -0.38021260       0.56343880      -0.00810454       0.00653727       0.02652756      -0.04046768      -9.00301552
Zr       0.00432182       1.38363721      17.30713414  T      -1.35918360      -1.32603965       2.15378898      -0.00224629       0.00142825       0.02300234      -9.16729641
Zr      -0.00526822       9.07538568      19.31355366  T      -1.26013206       1.01060288      -1.65627810       0.00994262      -0.00669039      -0.00506607      -9.03803825
Zr       1.58370650       6.70737065      21.46421379  T       5.66809826      -4.53394952      -3.49818217       0.05126584      -0.03111789       0.00266837      -9.26121616
Zr       1.67767513       3.75169039      14.96724892  F       0.00000000       0.00000000       0.00000000      -0.06251094       0.02181324      -0.05475047      -8.41140556
Zr      -0.00000000       1.49172723      12.73717785  F       0.00000000       0.00000000       0.00000000       0.00030250       0.06374237       0.54574966      -7.60600901
Zr      -0.00000000       8.99510765      14.96724892  F       0.00000000       0.00000000       0.00000000      -0.00084830      -0.73209333       0.38220048      -7.35470963
Zr       1.62912825       6.85069310      17.01074044  T      -1.08885271       1.32384996      -2.10626897       0.03754105       0.04286436       0.01485263      -9.17107773
Zr       5.01903304       3.92518132      19.33034014  T       0.61737584      -0.47010917       0.15032692       0.01956466       0.00500368       0.03861760      -9.17923927
Zr       3.35136792       1.64997892      17.06952117  T      -1.56461842       0.21738231       2.16293599      -0.00647008       0.02353723       0.01671925      -9.32804298
Zr       3.34489156       9.08882035      19.13897041  T      -0.88215070      -1.14316298       1.12686844       0.00096740      -0.01666856      -0.00300150      -9.15586281
Zr       5.03454398       6.85947925      21.04612626  T      -1.31578556       0.31295091      -2.95661947       0.00526746      -0.04327865       0.02524650      -8.52657509
Zr       5.03302526       3.75169039      14.96724892  F       0.00000000       0.00000000       0.00000000      -0.00907235       0.25677675       0.02977723      -8.41583443
Zr       3.35535026       1.49172723      12.73717785  F       0.00000000       0.00000000       0.00000000      -0.04953821       0.07705456       0.48428077      -7.64346027
Zr       3.35535026       8.99510765      14.96724892  F       0.00000000       0.00000000       0.00000000      -0.05401877      -0.76485395       0.55957174      -7.37978601
Zr       5.02920513       6.81843183      17.05417509  T      -1.05077615       0.99234712      -0.36130842      -0.01036868       0.01779751       0.00117072      -9.20839310
Zr       8.38108685       3.78714349      19.42145733  T       0.76795306      -0.53630648       1.29491649      -0.02706118       0.01547267      -0.00327340      -9.05928516
Zr       6.69538013       1.63965417      17.09083699  T       0.55057378       0.70258461       1.60429735       0.03681257       0.03417641      -0.01846728      -9.32967567
Zr       6.72281578       9.09922434      19.16239098  T      -0.51900972       0.15382907       0.06660388      -0.01014037      -0.02819635      -0.03179298      -9.15988541
Zr       8.45457651       6.77834662      21.51228456  T       0.03283543      -0.57578770      -3.93777166      -0.03104889      -0.04710777      -0.07038316      -9.26773262
Zr       8.38837528       3.75169039      14.96724892  F       0.00000000       0.00000000       0.00000000       0.06813424       0.02481661       0.07817838      -8.41288567
Zr       6.71070051       1.49172723      12.73717785  F       0.00000000       0.00000000       0.00000000       0.04303093       0.09811750       0.49500820      -7.64053154
Zr       6.71070051       8.99510765      14.96724892  F       0.00000000       0.00000000       0.00000000       0.04777326      -0.76409292       0.51600170      -7.38195229
Zr       8.42849703       6.88235185      16.98596354  T      -0.53666463      -0.24280378      -0.46952485      -0.01176816      -0.01197967       0.03557335      -9.17247772
Pd       2.00836707       1.03325867      19.20688830  T      -1.06557501       1.54739534      -1.03994515       0.02537192       0.05560142       0.01569670      -4.41010618
Pd      -0.11363223       4.41537808      21.56502170  T       0.06838507       1.25296009      -1.52522432       0.01701966      -0.02503501      -0.05591229      -4.29871178
Pd      -0.04424642       6.11746715      19.30455116  T      -1.03162832      -0.05962161       0.20437011       0.08276745       0.03661010       0.03033742      -6.10718870
Pd       1.94362721       9.52454291      21.48857277  T       4.51226098       3.83140381      -1.68547268      -0.02240690      -0.00899326       0.02036738      -5.17007113
Pd       1.67767513       0.92763877      14.96724892  F       0.00000000       0.00000000       0.00000000      -0.23116432       0.09314293      -0.63542569      -6.13481522
Pd       0.02515388       4.29333107      17.13988487  T      -0.47557879       0.23780352       1.17641925      -0.02800522       0.03728475       0.04200864      -6.08732796
Pd      -0.00000000       6.17105627      14.96724892  F       0.00000000       0.00000000       0.00000000       0.01346409       0.30139911      -0.40689927      -5.01635885
Pd       1.65921586       9.84712100      16.95159065  T      -1.15927377       2.72642353       0.38025865      -0.00861713       0.01629746       0.01148001      -5.98144722
Pd       5.00669570       1.18277249      19.17255240  T       1.66168528       2.36624002      -0.35532536       0.03513701       0.03628179      -0.02030900      -4.61552382
Pd       3.49769305       4.66193830      21.59326100  T      -0.34506957      -0.31180623      -1.10522479       0.04456225      -0.00128809      -0.01811919      -4.34311342
Pd       3.15066355       6.18755996      19.25525231  T      -1.89975350       0.45969602       0.27042272      -0.05148765      -0.00739002       0.02042288      -6.10143280
Pd       5.02838776       9.59219821      21.51712208  T       1.26357056      -1.79270977       0.83026765      -0.00401640       0.01452500      -0.01887864      -5.16501999
Pd       5.03302526       0.92763877      14.96724892  F       0.00000000       0.00000000       0.00000000      -0.00921443       0.02993158      -0.98842138      -6.14284801
Pd       3.27841583       4.42552104      17.14128642  T       1.20320451       0.64551545      -0.62590525      -0.00059877      -0.02298342       0.03907971      -6.10140610
Pd       3.35535026       6.17105627      14.96724892  F       0.00000000       0.00000000       0.00000000       0.00919192       0.53557211      -0.19943494      -4.98796225
Pd       5.03560988       9.86155200      16.91624330  T      -0.40081699       3.72285648       1.30636106      -0.00308990       0.00533079       0.00643972      -5.96300983
Pd       8.06904134       1.06808099      19.24341459  T       1.96226042       1.26853364      -1.81327096      -0.08095592       0.00460303      -0.03452322      -4.39061213
Pd       6.62591977       4.66600502      21.56311481  T      -0.85851649       0.87219499      -0.89294458      -0.03108351       0.01100016       0.00724784      -4.37727976
Pd       6.93593732       6.22533710      19.24690094  T       2.45196567       0.90078204       1.51407244      -0.01442010      -0.02666028       0.01492136      -6.10564232
Pd       8.11952482       9.57649966      21.52323653  T      -3.54389275       2.90487375      -1.10878886       0.03246358      -0.03556454      -0.00759336      -5.17344141
Pd       8.38837528       0.92763877      14.96724892  F       0.00000000       0.00000000       0.00000000       0.20986301       0.15679397      -0.59057415      -6.13698912
Pd       6.76169555       4.44186868      17.13467663  T      -0.89739633       0.57224823      -0.71961991      -0.00052418      -0.04460348       0.04475581      -6.10092831
Pd       6.71070051       6.17105627      14.96724892  F       0.00000000       0.00000000       0.00000000      -0.03472305       0.55178899      -0.27139616      -4.98528576
Pd       8.40163814       9.84761591      16.95737531  T       1.98184542       0.59827526      -2.40104345       0.02299739       0.03372198      -0.00306181      -5.98173094
O        0.00315638       6.94515256      22.89058374  T      -6.12586073       0.02667447       3.71792218      -0.01238670      -0.01570222      -0.06667137      -8.34338188
H        0.04282637       7.45185619      23.71220578  T       0.03799243      -0.39327849       0.71906176      -0.01219198       0.00528592       0.04304743      -3.21454239
