49
Lattice="11.863972663879395 0.0 -0.190369114279747 -2.7065036296844482 9.11697769165039 -0.3595939874649048 0.0 0.0 33.15761184692383" Properties=species:S:1:pos:R:3:move_mask:L:1:momenta:R:3:forces:R:3:energies:R:1 adsorbate_info="_JSON {\"site\": {\"coordinates\": [4.7250371, 2.29165745, 20.34256935], \"connectivity\": 1, \"topology\": [30], \"n_vector\": [0.031988673424204146, -0.041546126738672674, 0.9986243758919435], \"h_vector\": [1.0, 0.0, 0.0], \"site_formula\": {\"Y\": 1}}, \"smiles\": \"Cl\", \"mdf\": 1.3756497288606622, \"adsorbate_formula\": \"H\"}" bond_change_count=0 energy=-249.94442749023438 stress="0.00033093412639573216 1.4428687791223638e-05 2.435723899907316e-06 1.4428687791223638e-05 0.0003024510224349797 4.2087544898095075e-06 2.435723899907316e-06 4.2087544898095075e-06 8.881671237759292e-05" free_energy=-249.94442749023438 pbc="T T F"
Ga       3.26600262       2.80143493      15.24846503  T      -0.35375911      -0.08740802       0.42129486      -0.00382182       0.01048832       0.00180835      -3.29085040
Ga      -1.10344553       6.34772587      13.41262531  F       0.00000000       0.00000000       0.00000000       0.15144430      -0.01231086      -0.33367670      -3.10569739
Ga       3.18696737       0.77623945      11.74798393  F       0.00000000       0.00000000       0.00000000       0.26156878       0.15082961       0.27335274      -2.58194685
Ga       4.78001213       1.24975562      13.82387161  F       0.00000000       0.00000000       0.00000000       0.15798530      -0.05887502      -0.44337007      -3.26522136
Ga       0.43193507       4.79524708      11.89482021  F       0.00000000       0.00000000       0.00000000      -0.10831443      -0.30758315       0.10430484      -2.54975176
Ga       0.50808592       6.84820711      15.39899153  T       0.80517785       0.16511337      -0.46687254       0.00177091      -0.00522634       0.02170725      -3.30913067
Ga       1.71288122       1.35193350      20.69047868  T       0.02373257       0.37831834      -0.69441595       0.00494534      -0.02656604      -0.03319158      -2.60004520
Ga       3.26696186       4.84925302      18.67899826  T       0.35287867       2.13723618       0.51291143       0.02279365      -0.02120485      -0.03034487      -3.24893045
Ga      -1.02549512       8.35472848      16.98245626  T       0.72937569       0.55333411      -1.60993942      -0.00949379      -0.01043027      -0.02806710      -3.31624627
Ga       0.53603982       8.74536757      19.08224532  T       0.19163198       0.48235783      -0.90234251       0.01184128       0.04796488      -0.01317249      -3.09254360
Ga       4.82424400       3.25903552      17.33334027  T      -1.48535409       0.33386994       1.38979587       0.00013860      -0.00416631       0.01178294      -3.30348063
Ga      -1.10407333       5.18261275      20.79620892  T      -1.06407321      -0.59325001       1.28528075       0.01725036       0.00261282       0.03982264      -2.68991566
Ga       9.19492115       2.80897870      15.14963413  T       0.94757512      -1.14994327      -0.86622360      -0.01237033      -0.01142782      -0.01666725      -3.28760338
Ga       4.82854080       6.34772587      13.31744099  F       0.00000000       0.00000000       0.00000000       0.16519681      -0.00934176      -0.33755162      -3.10467196
Ga       9.11895370       0.77623945      11.65279961  F       0.00000000       0.00000000       0.00000000       0.26107156       0.14973892       0.27403796      -2.58142304
Ga      10.71199894       1.24975562      13.72868633  F       0.00000000       0.00000000       0.00000000       0.14740862      -0.05382203      -0.44471091      -3.26668358
Ga       6.36392164       4.79524708      11.79963493  F       0.00000000       0.00000000       0.00000000      -0.10927625      -0.30830467       0.11579069      -2.55130243
Ga       6.43612769       6.84183378      15.31453723  T       1.33614773      -0.10829533       1.59029897       0.01090989       0.00785429       0.00247471      -3.30808759
Ga       7.67686804       1.40359403      20.60802758  T      -0.24087462       0.69265772       0.48893218      -0.00377682      -0.02347614      -0.01882695      -2.61138630
Ga       9.19377348       4.82577797      18.60204341  T      -0.92636467       1.24706408       0.68983714      -0.01131932      -0.03385783      -0.06239190      -3.24847078
Ga       4.90528458       8.35547187      16.88734292  T       0.09662560       0.27977463       0.31786718      -0.00427898      -0.01108307      -0.02694507      -3.31403112
Ga       6.46567938       8.76644881      18.98514771  T      -0.75513498       0.27050396      -1.44284072      -0.00695262      -0.00445775      -0.04596726      -3.09768367
Ga      10.75284085       3.27034084      17.21499632  T      -1.29339568      -0.35397690       1.40647808       0.01751232      -0.01430108      -0.00570623      -3.30734539
Ga       4.82056308       5.20605203      20.71048687  T       0.94677807       0.42186815      -1.40382784       0.00762608       0.04079251      -0.00952038      -2.56422472
Y        0.37400515       3.78630281      14.73244694  T       0.66321967      -0.77319507      -0.17681045      -0.01065324      -0.01001551       0.00719064      -7.56912613
Y        1.90320456       7.35664511      12.79558849  F       0.00000000       0.00000000       0.00000000      -0.12566887       0.13841109      -0.13896130      -7.14435768
Y        0.26163101       1.78515875      11.22613144  F       0.00000000       0.00000000       0.00000000      -0.14563847       0.04990429       0.84436119      -6.35790634
Y        1.77336216       0.24083631      14.44090843  F       0.00000000       0.00000000       0.00000000      -0.15771109       0.08265969      -0.15251987      -7.52237082
Y        3.35727143       3.78632760      12.41667271  F       0.00000000       0.00000000       0.00000000       0.04216010       0.06851615      -0.07328054      -7.15152645
Y        3.39843539       5.84181753      15.87334050  T      -0.78999505       1.35762558      -0.25723343      -0.01594177      -0.00854479       0.02336326      -7.53781223
Y        4.68499263       2.23919342      20.18766734  T      -1.51142250      -0.68206295       0.03368776       0.00150339      -0.08112083      -0.05499037      -7.25902557
Y        0.43196435       5.82434862      18.22369983  T       1.66885903      -0.73349576       0.75119215      -0.00122096      -0.00492775      -0.00781710      -7.47708273
Y        4.69303937       0.21907396      16.75067974  T      -1.77131747       0.77793659      -0.78681470       0.01216409       0.02747218      -0.00545637      -7.56309891
Y        3.55380568       7.81202891      19.53181136  T       0.73990391       0.29807249       0.50729910      -0.01591168      -0.00934488      -0.03361922      -7.13659668
Y        1.77980032       2.28898551      17.85657915  T      -0.25302068       1.97663302       0.03510468      -0.01170124      -0.01798066      -0.02334097      -7.54773569
Y        1.92218937       4.32065213      21.14416491  T       3.30701782       0.32324502      -0.66379675      -0.04811665       0.00200153       0.03477249      -6.67483473
Y        6.30038167       3.78880195      14.64749389  T       0.64265705       0.13603072       0.47705137       0.00006660      -0.02252198       0.00098380      -7.57148647
Y        7.83519077       7.35664511      12.70040417  F       0.00000000       0.00000000       0.00000000      -0.13288729       0.13550410      -0.11887041      -7.14395523
Y        6.19361734       1.78515875      11.13094711  F       0.00000000       0.00000000       0.00000000      -0.14695565       0.04925759       0.84743917      -6.35598326
Y        7.70534849       0.24083631      14.34572411  F       0.00000000       0.00000000       0.00000000      -0.15517364       0.08649431      -0.14681143      -7.52506351
Y        9.28925800       3.78632760      12.32148743  F       0.00000000       0.00000000       0.00000000       0.03767939       0.07175733      -0.07590722      -7.15268183
Y        9.32983044       5.84001490      15.78670426  T      -0.53843408      -0.91794666       0.31321469      -0.02344049      -0.00254679       0.02084705      -7.54929018
Y       10.64918779       2.20458746      20.02803708  T       0.60209583       0.92476153      -1.04407580      -0.00775313      -0.02790441       0.00105570      -7.11619663
Y        6.34163456       5.81326892      18.14139209  T       1.24881208       0.07827233       2.46210582       0.00003578       0.00626928       0.01874478      -7.47235680
Y       10.63416154       0.22166676      16.64875590  T       1.18537171      -0.61519181      -1.39123231      -0.01025049       0.00883027      -0.00431653      -7.56183910
Y        9.48444125       7.78138439      19.43452930  T       0.67149135      -0.78021930      -1.16860776      -0.03109371       0.00116998      -0.03428945      -7.13146114
Y        7.71914539       2.28237647      17.76996445  T      -1.26367616      -0.13006151       1.84046242      -0.04679203      -0.00113992      -0.00343902      -7.55038166
Y        7.83238034       4.35565895      21.05009519  T      -0.87690035      -0.60775566      -2.96964466      -0.01676552      -0.02052089       0.05540412      -6.51043415
H        3.92844125       3.72070244      21.67909521  T      -0.83900218       0.36089896      -0.87241541       0.04020725      -0.01552593       0.02448588      -3.76526380
