49
Lattice="11.863972663879395 0.0 -0.190369114279747 -2.7065036296844482 9.11697769165039 -0.3595939874649048 0.0 0.0 33.15761184692383" Properties=species:S:1:pos:R:3:move_mask:L:1:momenta:R:3:forces:R:3:energies:R:1 adsorbate_info="_JSON {\"site\": {\"coordinates\": [8.418063519842224, 0.5064985741748055, 20.105519113732452], \"connectivity\": 2, \"topology\": [18, 21], \"n_vector\": [0.34569359237617336, -0.5058109229835716, 0.7903488156381103], \"h_vector\": [0.5773855737559698, -0.5838154103021351, -0.5707761959929999], \"site_formula\": {\"Ga\": 2}}, \"smiles\": \"S1S\", \"mdf\": 1.6311997785555092, \"adsorbate_formula\": \"H\"}" bond_change_count=0 energy=-249.9180908203125 stress="0.00032344512874260545 1.346178942185361e-05 3.788966751017142e-06 1.346178942185361e-05 0.0002820200752466917 -5.16509271619725e-06 3.788966751017142e-06 -5.16509271619725e-06 6.769260653527454e-05" free_energy=-249.9180908203125 pbc="T T F"
Ga       3.24621640       2.79663496      15.23262146  T      -0.09352447      -0.01113252      -1.28804382       0.01765032       0.00174660       0.01332081      -3.29201293
Ga      -1.10344553       6.34772587      13.41262531  F       0.00000000       0.00000000       0.00000000       0.13314822      -0.02620589      -0.33935401      -3.10686088
Ga       3.18696737       0.77623945      11.74798393  F       0.00000000       0.00000000       0.00000000       0.26400822       0.15021060       0.27174872      -2.58219218
Ga       4.78001213       1.24975562      13.82387161  F       0.00000000       0.00000000       0.00000000       0.14187109      -0.07280888      -0.48653591      -3.27109551
Ga       0.43193507       4.79524708      11.89482021  F       0.00000000       0.00000000       0.00000000      -0.10894520      -0.31019634       0.11088213      -2.55277228
Ga       0.51336021       6.82743905      15.38742654  T       1.30145513       0.60043620       0.66612438      -0.01317025       0.00051634       0.02705066      -3.30891728
Ga       1.74158210       1.32702692      20.66178248  T       0.46671428      -0.46891226      -1.42910252      -0.03140614       0.00153928      -0.00203310      -2.61484337
Ga       3.26538922       4.75345431      18.66862271  T       0.15811159       0.10975430       0.91475740      -0.00449807       0.01298444       0.09667206      -3.25994062
Ga      -1.03310349       8.32203207      16.94075995  T       1.47921794       0.45761463       0.99848342      -0.00173433      -0.02527145       0.01372352      -3.31815004
Ga       0.53308339       8.71871779      19.02383137  T      -0.14428981      -0.81484042       0.01256251      -0.02978753      -0.01957671       0.00198038      -3.10508251
Ga       4.82943260       3.23381719      17.28799034  T      -0.46548074       1.30339875       0.93951266      -0.01144777      -0.03130095      -0.04290634      -3.30933046
Ga      -1.09223049       5.13767553      20.76430567  T       0.18736760       0.65040627      -2.08598797      -0.04750096       0.01279248      -0.02845062      -2.67133927
Ga       9.19205516       2.79465805      15.13623965  T       0.40238798      -1.20672177       0.03631221      -0.00115633       0.01807980       0.02511352      -3.29579997
Ga       4.82854080       6.34772587      13.31744099  F       0.00000000       0.00000000       0.00000000       0.15279709      -0.02172199      -0.33635712      -3.10751796
Ga       9.11895370       0.77623945      11.65279961  F       0.00000000       0.00000000       0.00000000       0.26594439       0.14971143       0.27325094      -2.58257818
Ga      10.71199894       1.24975562      13.72868633  F       0.00000000       0.00000000       0.00000000       0.16016465      -0.08816815      -0.49717632      -3.26921439
Ga       6.36392164       4.79524708      11.79963493  F       0.00000000       0.00000000       0.00000000      -0.10742119      -0.30649000       0.09647337      -2.55049372
Ga       6.45167465       6.81646817      15.30076975  T      -1.21232885       0.09270569       1.34223506      -0.01183341       0.00245993       0.01303219      -3.30786681
Ga       7.59823675       1.27205704      20.51474961  T       0.55108056       0.26498299       0.30356529       0.05984338       0.02281957       0.03017643      -2.47451544
Ga       9.18022412       4.73789794      18.59616269  T       0.21675842      -0.41672531       0.70930676       0.01599641       0.02981339       0.01257003      -3.25034881
Ga       4.90229511       8.30841177      16.83785679  T      -0.28560489       0.63775195       0.42673445       0.00390967      -0.00682314       0.00998244      -3.32023001
Ga       6.46102186       8.69758345      18.92183926  T       0.10246450      -0.82258469      -1.19474350      -0.02276476      -0.00489447       0.01063031      -3.09154415
Ga      10.76272838       3.22693005      17.21926086  T       0.71022458       0.47294002       0.50319748      -0.01943591      -0.00434951      -0.02170541      -3.30853248
Ga       4.82676402       5.12915237      20.70417966  T      -0.93860535       0.58323108      -0.92664477      -0.06790521      -0.01308045      -0.06054156      -2.66997957
Y        0.36486925       3.77395573      14.73798117  T      -0.09723875       0.63239812       1.14830398      -0.00044551       0.00206833      -0.01577630      -7.56672144
Y        1.90320456       7.35664511      12.79558849  F       0.00000000       0.00000000       0.00000000      -0.11846676       0.13674055      -0.15823868      -7.14843035
Y        0.26163101       1.78515875      11.22613144  F       0.00000000       0.00000000       0.00000000      -0.14581926       0.04950919       0.84238517      -6.35807800
Y        1.77336216       0.24083631      14.44090843  F       0.00000000       0.00000000       0.00000000      -0.17019832       0.06276274      -0.20811900      -7.51828575
Y        3.35727143       3.78632760      12.41667271  F       0.00000000       0.00000000       0.00000000       0.03369421       0.07545018      -0.10069392      -7.15332747
Y        3.38284878       5.81543048      15.87252131  T      -1.37015606       0.35647842       1.60770525       0.01664715      -0.01085080      -0.00432592      -7.54445362
Y        4.70336608       2.15474102      20.08623692  T      -0.37732436       0.97189453       1.37104921      -0.02231363      -0.01896077       0.02612743      -7.12316132
Y        0.44340157       5.78001519      18.20068158  T       1.33936860      -0.61562492      -0.61712360      -0.03586435       0.00811044       0.00345522      -7.46267128
Y        4.70284355       0.20300750      16.71456610  T      -2.03817231      -0.24520568       1.38582442      -0.00555921      -0.01409621      -0.00355454      -7.55830002
Y        3.53772829       7.71838389      19.46244511  T      -1.11666511       0.15403476      -1.29120665       0.00540650      -0.01797813       0.02287680      -7.13973761
Y        1.75567981       2.24019332      17.84019752  T       0.09049473       0.62862844      -0.79573695       0.01383398      -0.00947488       0.01173353      -7.54092216
Y        1.87453260       4.27335916      21.12681586  T       0.54227165      -0.36633673      -1.26758558       0.01178991      -0.01038007      -0.01464876      -6.51858616
Y        6.30162252       3.77331183      14.62874710  T       0.60521338       0.13285200       1.11608979      -0.00449835       0.00459835      -0.00388266      -7.56250811
Y        7.83519077       7.35664511      12.70040417  F       0.00000000       0.00000000       0.00000000      -0.12001087       0.13305378      -0.14181264      -7.14907932
Y        6.19361734       1.78515875      11.13094711  F       0.00000000       0.00000000       0.00000000      -0.14510387       0.05109236       0.83885133      -6.35993767
Y        7.70534849       0.24083631      14.34572411  F       0.00000000       0.00000000       0.00000000      -0.16073996       0.05354128      -0.21144125      -7.51719284
Y        9.28925800       3.78632760      12.32148743  F       0.00000000       0.00000000       0.00000000       0.04145933       0.07966629      -0.10515165      -7.15235806
Y        9.31505188       5.81062754      15.78723863  T      -1.07140065      -1.08390039       0.37848519       0.01675323      -0.00396522       0.00476116      -7.54770184
Y       10.60631458       2.13332124      20.04038329  T      -0.25705273      -0.30373000      -0.18128526      -0.05471985      -0.01365967       0.06551767      -7.26372910
Y        6.37186518       5.75610798      18.13322979  T      -0.71513049       0.27022141       2.05256973      -0.01768577       0.01104830      -0.01361260      -7.47892284
Y       10.63477589       0.20588048      16.62393468  T       1.06997821      -1.03823609      -1.51631287      -0.00291312      -0.02918294      -0.00627983      -7.55507088
Y        9.47253821       7.75040483      19.37786285  T      -0.72037403      -0.02988536       1.14594959       0.02262065      -0.02764860       0.00650876      -7.14177227
Y        7.68958835       2.23960451      17.71394994  T       0.04997934       1.06404977       0.95567004       0.01509327      -0.01002369      -0.00446144      -7.53409958
Y        7.82288435       4.16986612      21.07288167  T       1.04042519      -0.55219970      -1.44498827       0.01069065      -0.01417736      -0.00729232      -6.65668392
H        8.94543183       2.35349918      21.54626646  T       0.12582717       0.72467397       0.29594306       0.08002350       0.04097065      -0.01447258      -3.74532366
