49
Lattice="11.863972663879395 0.0 -0.190369114279747 -2.7065036296844482 9.11697769165039 -0.3595939874649048 0.0 0.0 33.15761184692383" Properties=species:S:1:pos:R:3:move_mask:L:1:momenta:R:3:forces:R:3:energies:R:1 adsorbate_info="_JSON {\"site\": {\"coordinates\": [3.89007894, 5.989430903333333, 19.850228626666667], \"connectivity\": 3, \"topology\": [7, 23, 33], \"n_vector\": [0.46477124344000986, 0.01997253195095509, 0.8852055067828574], \"h_vector\": [0.4403568420437517, -0.7851021972424235, 0.4355460843015043], \"site_formula\": {\"Ga\": 2, \"Y\": 1}}, \"smiles\": \"S1S\", \"mdf\": 1.159986326187003, \"adsorbate_formula\": \"H\"}" bond_change_count=0 energy=-249.863037109375 stress="0.00032682495657354593 1.8738430298981257e-05 2.968808701098169e-07 1.8738430298981257e-05 0.00029585399897769094 -8.072056516539305e-06 2.968808701098169e-07 -8.072056516539305e-06 6.26923720119521e-05" free_energy=-249.863037109375 pbc="T T F"
Ga       3.24861157       2.80148178      15.22565088  T      -1.35448339      -0.40200268      -0.15566272      -0.00977711      -0.01568129      -0.02019265      -3.28911924
Ga      -1.10344553       6.34772587      13.41262531  F       0.00000000       0.00000000       0.00000000       0.12423064      -0.02311919      -0.34914896      -3.10953665
Ga       3.18696737       0.77623945      11.74798393  F       0.00000000       0.00000000       0.00000000       0.26429155       0.14918622       0.27035049      -2.58238745
Ga       4.78001213       1.24975562      13.82387161  F       0.00000000       0.00000000       0.00000000       0.15142369      -0.07139642      -0.48612446      -3.27017832
Ga       0.43193507       4.79524708      11.89482021  F       0.00000000       0.00000000       0.00000000      -0.10897843      -0.30867475       0.10514298      -2.55125618
Ga       0.49858614       6.83338333      15.39446954  T       0.58594744      -1.24199816      -0.53142672       0.01459111      -0.01771836      -0.00661815      -3.30897975
Ga       1.72987013       1.33332848      20.64693794  T       0.55207173      -0.15656042      -1.24102074      -0.01972421       0.03198162       0.02802527      -2.60109353
Ga       3.26483823       4.74466376      18.63957222  T       0.42678589      -0.47419842       1.03925003      -0.03806943       0.01974140       0.04548512      -3.24360251
Ga      -1.05565932       8.31929703      16.93792665  T       0.94510948      -0.94962017      -0.70220965      -0.01816240      -0.01189341      -0.01959060      -3.31754971
Ga       0.50966279       8.72014486      19.00526999  T      -0.48782588      -0.66915370       0.23615404       0.01949522      -0.00856646       0.04483712      -3.10288811
Ga       4.82561899       3.23097841      17.26698561  T      -0.12662356       0.43676164       1.35404489       0.01775809      -0.04624120       0.01609744      -3.30263162
Ga      -1.12977255       5.15024255      20.78617659  T       0.24047100       0.28249943      -2.07933781       0.01068145       0.00081746       0.03023630      -2.67194104
Ga       9.17232929       2.79677857      15.13927480  T       0.53127672       1.29760600      -2.85581030       0.01441041      -0.00420129      -0.02510956      -3.29397488
Ga       4.82854080       6.34772587      13.31744099  F       0.00000000       0.00000000       0.00000000       0.14771621      -0.01320487      -0.34515122      -3.10870361
Ga       9.11895370       0.77623945      11.65279961  F       0.00000000       0.00000000       0.00000000       0.26574606       0.14811227       0.27204710      -2.58319473
Ga      10.71199894       1.24975562      13.72868633  F       0.00000000       0.00000000       0.00000000       0.13368589      -0.06325638      -0.48348334      -3.27046967
Ga       6.36392164       4.79524708      11.79963493  F       0.00000000       0.00000000       0.00000000      -0.10523669      -0.30411828       0.08910508      -2.54972768
Ga       6.43148970       6.82598165      15.31487770  T       2.42290352       0.89678850       0.77922301      -0.00244220       0.00805037      -0.02014864      -3.31223655
Ga       7.64729091       1.31557434      20.55354922  T      -1.12835316       0.02307142      -0.07012666       0.01209623      -0.03199705       0.00459117      -2.61087251
Ga       9.18318752       4.77544483      18.59685644  T      -1.05865829       1.09223645       2.00792737      -0.05185241      -0.02452622      -0.07240819      -3.25192976
Ga       4.85985785       8.31196867      16.86369326  T      -0.53798720       1.58535263       0.45834551       0.01634767       0.00442518       0.05195286      -3.31355739
Ga       6.44570768       8.71882082      18.92042323  T       2.03091060       0.55993342       0.77266420      -0.04215614      -0.00890508       0.03195557      -3.09718561
Ga      10.74380821       3.25150244      17.19001152  T       1.14859585       1.39853173       0.72866866      -0.00500011      -0.02975495       0.02009182      -3.30843472
Ga       4.80249382       5.09183556      20.68510754  T      -0.95756695       0.48067946      -1.01655225      -0.06045947       0.03412636      -0.00718170      -2.46674156
Y        0.35941773       3.78084461      14.73233404  T       0.31538440      -1.35818049      -1.83989284       0.01156354      -0.00610495      -0.02301320      -7.56548977
Y        1.90320456       7.35664511      12.79558849  F       0.00000000       0.00000000       0.00000000      -0.12690865       0.14008498      -0.14414516      -7.14728928
Y        0.26163101       1.78515875      11.22613144  F       0.00000000       0.00000000       0.00000000      -0.14610648       0.05050220       0.84038758      -6.35849667
Y        1.77336216       0.24083631      14.44090843  F       0.00000000       0.00000000       0.00000000      -0.18246454       0.06987576      -0.21793082      -7.52046776
Y        3.35727143       3.78632760      12.41667271  F       0.00000000       0.00000000       0.00000000       0.03114214       0.08075578      -0.11654025      -7.15358925
Y        3.38002100       5.81950929      15.86753001  T       1.63694969      -1.01208705       0.08702282      -0.01486965      -0.00954280      -0.00463934      -7.53428555
Y        4.69982191       2.13748806      20.07574440  T       0.37734876      -1.26256914       1.13156021       0.00426598      -0.01586005       0.00199015      -7.12411213
Y        0.40523596       5.78650775      18.20400363  T      -0.09469313      -0.17337803       2.00173134       0.02283045      -0.02124954      -0.00109223      -7.47163296
Y        4.69293814       0.19448943      16.71824968  T       0.32328018       0.95314239       1.34183436       0.01810465      -0.00606409       0.01964554      -7.55602646
Y        3.51156636       7.65499007      19.57306389  T       0.05315316       0.71829975      -0.57527683       0.01772175      -0.01235354      -0.01644669      -7.22177124
Y        1.75844348       2.23225958      17.81330033  T      -0.80993686       0.18581234      -0.53629191      -0.01523945       0.01868105       0.01491857      -7.53562546
Y        1.92740559       4.35652363      21.12921770  T       0.89780992      -0.05463140      -2.18646933       0.03406131       0.02206826      -0.03815018      -6.64226770
Y        6.29910043       3.78604991      14.62637042  T       0.80893055      -0.44748821      -0.08162988      -0.00025841      -0.02357849      -0.00415267      -7.56235123
Y        7.83519077       7.35664511      12.70040417  F       0.00000000       0.00000000       0.00000000      -0.13579164       0.13411342      -0.12455042      -7.14682388
Y        6.19361734       1.78515875      11.13094711  F       0.00000000       0.00000000       0.00000000      -0.14470112       0.05085076       0.84012008      -6.36034775
Y        7.70534849       0.24083631      14.34572411  F       0.00000000       0.00000000       0.00000000      -0.18556413       0.05328900      -0.18535143      -7.51912260
Y        9.28925800       3.78632760      12.32148743  F       0.00000000       0.00000000       0.00000000       0.03473994       0.07966816      -0.10436299      -7.15248632
Y        9.30043114       5.81733901      15.78016632  T      -0.37465056      -1.17445415      -0.04891389       0.00442160       0.00006029       0.01755818      -7.54796505
Y       10.62883680       2.16268373      19.99574863  T       0.00443147      -0.41181306       1.63202778       0.01371755      -0.01813137       0.00952059      -7.12386513
Y        6.32965352       5.77333384      18.13539764  T      -2.39557214       1.03547276       1.10557121       0.01468872      -0.00742688      -0.01695741      -7.47212982
Y       10.60744573       0.21816155      16.61753823  T       0.83482284      -3.29618516       1.69687874       0.02689079      -0.03479625       0.00570598      -7.55216503
Y        9.44330904       7.75249210      19.36702352  T      -0.51063098      -0.83996487      -0.39105488       0.01659564       0.01038811       0.04916501      -7.13575077
Y        7.68985004       2.24953702      17.73330023  T       0.55178464       0.88677889       1.10383653       0.00606570       0.00025307       0.01391852      -7.53536606
Y        7.81463899       4.25952276      21.04121309  T       0.82177156       0.16717206      -1.25726314      -0.01475749       0.00563135       0.02330283      -6.51226139
H        3.47503245       6.05461850      21.34271818  T       0.27467938       0.11526724       0.02743949      -0.02076390       0.02570015      -0.01366101      -3.89329576
