82
Lattice="15.482664108276367 0.0 9.000000350284799e-16 -3.941528797149658 14.972549438476562 -3.978878974914551 0.0 0.0 31.831031799316406" Properties=species:S:1:pos:R:3:move_mask:L:1:momenta:R:3:forces:R:3:energies:R:1 adsorbate_info="_JSON {\"site\": {\"coordinates\": [1.4760183699999998, 9.262922765, 17.2086525], \"connectivity\": 2, \"topology\": [16, 26], \"n_vector\": [0.058897049052311655, -0.04483949419060913, 0.9972565153327704], \"h_vector\": [0.7327077655707444, -0.680543408073524, 0.0], \"site_formula\": {\"Co\": 2}}, \"smiles\": \"S1S\", \"mdf\": 1.4996513223893422, \"adsorbate_formula\": \"HN\"}" bond_change_count=0 energy=-534.0780639648438 stress="0.0003261605743318796 6.0330971791699994e-06 -1.502657414675923e-05 6.0330971791699994e-06 0.00027428317116573453 -7.613496563863009e-05 -1.502657414675923e-05 -7.613496563863009e-05 6.343457062030211e-05" free_energy=-534.0780639648438 pbc="T T F"
Co       2.31877374       8.38782670      12.92643609  T       1.30148641      -0.33173640      -1.34033764       0.01738897      -0.01573255       0.02958223      -6.54872417
Co      12.09180303       0.95256398      13.11111018  T       0.20301738      -0.19657996       1.02326363      -0.00396027       0.01759028      -0.00537196      -5.66582060
Co       9.69658852      11.82328224      11.24033356  F       0.00000000       0.00000000       0.00000000       0.11048572       0.10192015      -1.01402223      -6.44691467
Co       3.92602110       4.33700800      11.24033356  F       0.00000000       0.00000000       0.00000000      -0.09316421      -0.42481610       0.05469217      -5.54478455
Co      11.70440102      10.55078983      11.24033356  F       0.00000000       0.00000000       0.00000000      -0.09670453       0.32628596      -0.48894474      -5.68182993
Co       5.93383265       3.06451464      11.24033356  F       0.00000000       0.00000000       0.00000000      -0.15239963       0.46593234       0.25591141      -4.99125719
Co      11.01722930       4.83003145      12.86790560  T       0.13660096      -1.56799123      -2.13617823       0.00559695       0.00392702      -0.00040492      -6.65051889
Co       1.22387576      12.38704586       9.25089359  F       0.00000000       0.00000000       0.00000000       0.17604551       0.58506024       0.34610489      -5.02295542
Co      -0.16326515       4.42176008      11.24033356  F       0.00000000       0.00000000       0.00000000       0.13429128      -0.19104707       0.35800207      -5.24730682
Co       5.60730267      11.90803528      11.24033356  F       0.00000000       0.00000000       0.00000000       0.22291398       0.25683975      -1.04187608      -6.32327509
Co       0.45220544       9.97575821      13.01742062  T       0.16817387      -1.29759131      -1.23860058      -0.00808604       0.00011960       0.01510064      -6.62593365
Co      10.36021715       2.47967560      12.90223930  T       1.29849873      -0.06824426      -0.82648508       0.01851016      -0.00306381      -0.00357819      -6.23730230
Co       9.16724577       6.43780010      12.87653527  T      -1.32439356       1.48498578      -2.52327179      -0.00143036       0.00891706      -0.00217342      -6.60927105
Co      -0.51783448      14.00475788       9.25089359  F       0.00000000       0.00000000       0.00000000      -0.04070500      -0.37760282       0.28915292      -5.36846542
Co       1.84454656       3.14926696      11.24033356  F       0.00000000       0.00000000       0.00000000      -0.02550290       0.88883448      -0.07327917      -5.01951408
Co       7.61511421      10.63554192      11.24033356  F       0.00000000       0.00000000       0.00000000       0.07324687       0.30289212      -0.38911280      -5.79560995
Co       2.54822849       8.20255479      16.67246589  T       1.56212826       1.14790604      -0.41239034      -0.00604514       0.03410539       0.03122640      -5.96450710
Co      12.14411968       0.77779256      17.30915166  T      -0.17257582      -0.94860827       1.80438749       0.00929739      -0.01571167       0.01269008      -6.31849575
Co       9.62055788      11.57950060      15.24593347  T      -0.84424833      -0.98724313       1.77816662       0.02609516       0.04449905      -0.02127170      -5.87870264
Co       3.93498793       4.33062820      15.23612727  T       0.49361311      -1.98027898       2.31408739       0.00435193      -0.00791991       0.00522964      -6.65380287
Co      11.57360878      10.29374917      15.28539038  T       0.32406432      -1.00177192       1.77758284       0.01841249      -0.00796409       0.01619521      -6.27401018
Co       6.02476888       3.04126476      15.23404755  T      -0.53275354      -0.21408959       2.06388355       0.01185547      -0.00235213      -0.00057355      -6.56980228
Co      10.72776342       4.71183120      16.96945915  T      -0.40856008      -1.48632288      -0.17162678       0.01990883      -0.04415500       0.00029642      -5.70934916
Co       1.33676337      12.38724993      13.13856117  T      -0.08519980       0.94564359       0.86046675       0.00422339      -0.00410449       0.02816893      -6.63411903
Co      -0.27354018       4.37027652      15.31535466  T      -0.27395396       1.00883915       1.69036944      -0.00361548      -0.00925888       0.00479797      -6.56239796
Co       5.62072942      11.87328427      15.16855691  T      -0.46116728       0.22524134       0.74477498      -0.01959620       0.02622896       0.00643326      -5.67276049
Co       0.69223984       9.79533092      16.80160420  T      -0.80141942      -1.64629280      -0.70927626       0.01112807      -0.02668171      -0.04699573      -5.82635403
Co      10.48652996       2.43172671      17.20084936  T      -0.32757376      -0.69283313       0.53977000       0.02119090       0.02604255      -0.02359267      -6.12723827
Co       9.06743809       6.33081981      16.78583159  T       1.28825696       0.23290096       0.13392313      -0.01383269       0.02305471      -0.02611436      -5.49262476
Co      -0.52875967      13.96850005      13.24261378  T      -0.21233377       1.44649735       2.40233071       0.02319310       0.01803232       0.00641266      -6.55434704
Co       1.82851327       3.03148746      15.30620254  T      -0.20669257       0.14435183       0.08702757      -0.00261132      -0.01281629      -0.00389841      -6.61801004
Co       7.52301322      10.62090834      15.33893001  T       0.27130469      -0.06228112       1.65090874      -0.00828454      -0.00563207       0.02710043      -6.39715624
Y        9.57660716       9.66784388      13.19416805  T       1.25427407      -0.86048546       0.08498032       0.00351768       0.01105469       0.00783391      -7.48893738
Y        3.73397809       2.02861985      13.15804456  T       0.60942551      -0.03501336      -0.13126804      -0.00192234       0.00646305       0.00328648      -7.52820683
Y       12.35783672       3.26628304      11.24033356  F       0.00000000       0.00000000       0.00000000       0.32715595      -0.24950172       0.15141082      -6.88472748
Y        2.64574003      10.75255775      11.24033356  F       0.00000000       0.00000000       0.00000000      -0.15055093       0.25732633      -0.15171990      -7.02655935
Y       -2.37588897       9.23011934      13.24926902  T      -0.30189196      -0.07504313       0.56452752      -0.01472092      -0.02209109       0.02062339      -6.65550184
Y        7.33956656       1.72609002      13.23798296  T      -0.69720608       0.40992515       0.68312234       0.00404437       0.00290195       0.00590916      -6.64803791
Y       13.83644857       5.59806588      13.28716574  T       0.69949462      -1.32844024       0.06681096       0.02862946       0.02939820      -0.01089924      -6.68548155
Y        4.16964054      13.17344666       9.25089359  F       0.00000000       0.00000000       0.00000000      -0.34049669      -0.44707006       0.55195189      -6.10686016
Y       11.14714432       6.98271179      11.24033356  F       0.00000000       0.00000000       0.00000000       0.15590097       0.06121241      -0.11070878      -6.62458086
Y        1.43504775      14.46898651      11.24033356  F       0.00000000       0.00000000       0.00000000       0.14767036      -0.01832065      -0.07201280      -7.27777052
Y       -0.81670117      11.70626640      11.24033356  F       0.00000000       0.00000000       0.00000000      -0.26553845      -0.03775955      -0.24203512      -7.35144806
Y        8.89539528       4.21999168      11.24033356  F       0.00000000       0.00000000       0.00000000      -0.26835585      -0.16085407      -0.02081233      -6.85015297
Y        3.93658876       7.38591671      11.24033356  F       0.00000000       0.00000000       0.00000000      -0.03001738      -0.66874290      -0.29865021      -6.35392714
Y        9.70715618      14.87219143      11.24033356  F       0.00000000       0.00000000       0.00000000      -0.04318097      -0.50638652       0.07801866      -6.72280121
Y        0.39399123       7.98983765      11.24033356  F       0.00000000       0.00000000       0.00000000      -0.29410899      -0.35711515      -0.08496237      -6.73087692
Y       10.17716500       0.37683363      15.19091122  T      -0.69234427       0.03415796      -0.79542345      -0.00204165       0.01763293      -0.00354567      -7.15233421
Y       -0.12065314       2.29992710      13.27280958  T      -1.14945852       1.09439826       2.31715729       0.01307178       0.00238738      -0.00525481      -7.15927124
Y        5.66652656       9.93292786      13.20210118  T       0.68740623       0.96037804       0.39808154      -0.01580223       0.00248056       0.01509243      -7.19307470
Y       11.65617561      12.55751133       9.25089359  F       0.00000000       0.00000000       0.00000000      -0.05501069      -0.25837499       1.22762895      -6.29030132
Y        5.92782181       4.96402335      13.19338286  T       0.23450903       0.15628925       0.90682827      -0.04023265      -0.00975673       0.00479376      -7.20219612
Y        7.60454655       7.58663273      11.24033356  F       0.00000000       0.00000000       0.00000000      -0.03313911       0.39366236      -0.27820849      -6.29733753
Y        1.81346943       0.04236018      15.28141567  T       0.11155352      -0.96147772      -0.30590046      -0.00497040       0.01650155      -0.00949212      -6.72314453
Y        1.91068392       5.20775289      13.19851697  T      -0.32404148       0.22697396      -1.12604818      -0.01234819       0.01324752      -0.00702988      -7.49340105
Y        7.75397968      12.78219700       9.25089359  F       0.00000000       0.00000000       0.00000000       0.22443326      -0.18877566       0.90828282      -6.62735224
Y        9.46983641       9.43841844      16.90864834  T       1.52653935       1.70244117      -1.37708716       0.02444531       0.01472636       0.03392924      -6.91901779
Y        3.88060371       2.21577213      16.98933884  T       0.30428978      -0.54297920      -0.28640502      -0.01016732       0.01773122       0.00333589      -6.81316042
Y       12.27987827       3.10027899      14.97064556  T      -0.37384165      -2.51243749      -0.23719258      -0.02756796      -0.00244272      -0.00622682      -7.44765663
Y        2.63904547      10.67225670      14.92148132  T      -0.85199581      -1.39650614      -0.38522671       0.03834450       0.01394467       0.05721202      -7.59277248
Y       -2.09914845       9.21179519      16.86515588  T       0.40988057      -0.82604169      -0.79867024       0.03135550       0.01477812       0.02048969      -6.14502335
Y        7.66836397       1.98114827      17.04936384  T       1.44787658      -0.72832849       0.11988761       0.00810176       0.00357473      -0.00776371      -6.41807461
Y       13.50412956       5.46325413      17.00165781  T      -2.00165979       1.81628463      -1.56885005      -0.00419425       0.02902956       0.02432699      -6.34260464
Y        4.20074946      13.19304614      13.02533303  T       0.35336515      -1.76237464      -0.40735265      -0.02104501      -0.00580446       0.01545003      -6.67022419
Y       11.09372698       6.95651184      14.96308889  T       0.21525592       0.19576522      -0.97852919      -0.00292644       0.00936734      -0.02317820      -7.16250515
Y        1.49458482      14.31986816      14.90156475  T      -1.20130500       0.11186892      -1.42655082       0.00914793       0.01865450      -0.02189169      -6.52214575
Y       -0.74603048      11.57613566      14.93545974  T       2.04501965      -0.57769744      -0.66989528       0.03247083      -0.02093078       0.01808375      -6.83831406
Y        8.92807702       4.20334901      14.88309112  T       0.66569759      -1.25606180      -1.44569373      -0.00472413      -0.00645123      -0.00102187      -7.43895006
Y        3.97012168       7.21769342      14.72679917  T       0.85818227      -1.07564408      -2.66964527       0.02384302       0.00997314      -0.03547586      -6.47662544
Y        9.67802534      14.38658820      15.11674062  T       1.18483106      -2.25876862      -1.36921585      -0.02181793       0.00352631      -0.00969663      -6.18163157
Y        0.38558346       7.84299830      14.90878826  T       0.37366603      -2.76762657      -0.85603244       0.00501009       0.04765666      -0.00732896      -7.07112408
Y       10.18208202       0.34625240      18.94249544  T       1.31527490       0.14727917      -1.57177650       0.00334569      -0.00750141      -0.01824502      -6.49153042
Y       -0.17716231       2.38156166      17.06451209  T      -0.62343291       0.69451804      -1.38951257      -0.01026577      -0.00503929      -0.01922482      -6.67282772
Y        5.16126041       9.79961529      16.86048106  T      -1.31260057      -0.91743445      -3.86093010       0.03222723       0.03967930       0.00602656      -7.08138371
Y       11.65541359      12.46410593      13.10917265  T       0.76511810      -1.31552978      -0.37521330       0.03033907       0.00287513      -0.00754476      -7.16434479
Y        5.99180633       5.19675417      16.85782593  T      -0.59125591       0.17206211      -0.27582791      -0.00136564      -0.01645543      -0.00244892      -6.68849850
Y        7.56496778       7.59492913      14.83664387  T      -0.05002373       0.97343565      -0.55457732      -0.01832712       0.02491879      -0.00717960      -6.64303732
Y        1.91910085      -0.00940559      18.94802592  T       0.89274210       1.36337198      -3.42639074       0.00595127      -0.00958856      -0.01250406      -5.99353123
Y        1.99746162       5.31690752      16.89498192  T       1.57790384       0.50178319      -1.58007255      -0.01630895      -0.02456734       0.00283679      -6.87250710
Y        7.70613132      12.71863721      13.08748078  T       1.24063831      -1.48814385      -1.01708093       0.03881435       0.00794376      -0.01411238      -7.47130156
N        2.72023935       9.93670727      17.23315703  T       0.42989991       1.06514577      -2.74581394       0.01738346       0.00576419       0.00822592      -9.01473999
H        2.46376762      10.07509501      18.21374621  T      -0.40813284      -0.32493458       0.16995588       0.07374619      -0.03630590      -0.02146131      -3.83697653
