82
Lattice="15.482664108276367 0.0 9.000000350284799e-16 -3.941528797149658 14.972549438476562 -3.978878974914551 0.0 0.0 31.831031799316406" Properties=species:S:1:pos:R:3:move_mask:L:1:momenta:R:3:forces:R:3:energies:R:1 adsorbate_info="_JSON {\"site\": {\"coordinates\": [0.49957722499999996, 9.030807975000002, 16.213932515], \"connectivity\": 2, \"topology\": [26, 70], \"n_vector\": [-0.48776418401461613, -0.678613731746584, 0.549153442926047], \"h_vector\": [-0.07313628996159381, -0.7210492975949562, -0.6890130575892403], \"site_formula\": {\"Co\": 1, \"Y\": 1}}, \"smiles\": \"S1S\", \"mdf\": 1.6178604963168364, \"adsorbate_formula\": \"HN\"}" bond_change_count=0 energy=-534.19970703125 stress="0.00029747330700047314 8.93280503078131e-06 -4.467287908482831e-06 8.93280503078131e-06 0.0002845670096576214 -6.79264121572487e-05 -4.467287908482831e-06 -6.79264121572487e-05 6.046365888323635e-05" free_energy=-534.19970703125 pbc="T T F"
Co       2.32631140       8.44485528      12.92497858  T       0.77568475      -0.03284256      -2.16853001      -0.01400825       0.00053293       0.00200899      -6.57598019
Co      12.15674805       1.04485163      13.12757223  T       0.31248144       1.91271428       0.65449853      -0.01102562      -0.00055202      -0.00102392      -5.66246319
Co       9.69658852      11.82328224      11.24033356  F       0.00000000       0.00000000       0.00000000       0.11678146       0.14863229      -1.04203057      -6.44020081
Co       3.92602110       4.33700800      11.24033356  F       0.00000000       0.00000000       0.00000000      -0.07891861      -0.44265792       0.01599625      -5.54612112
Co      11.70440102      10.55078983      11.24033356  F       0.00000000       0.00000000       0.00000000      -0.08619790       0.35104901      -0.52692503      -5.68755150
Co       5.93383265       3.06451464      11.24033356  F       0.00000000       0.00000000       0.00000000      -0.15138887       0.46353620       0.26471508      -4.98580837
Co      11.02614962       4.83772067      12.87375560  T      -0.62091905       0.49619318      -0.73213706      -0.00553138       0.00075221       0.00444692      -6.64619493
Co       1.22387576      12.38704586       9.25089359  F       0.00000000       0.00000000       0.00000000       0.17492895       0.58854800       0.34485930      -5.02792454
Co      -0.16326515       4.42176008      11.24033356  F       0.00000000       0.00000000       0.00000000       0.16946371      -0.18949403       0.30645180      -5.25288773
Co       5.60730267      11.90803528      11.24033356  F       0.00000000       0.00000000       0.00000000       0.21478772       0.26490694      -1.07381463      -6.30661583
Co       0.50417763       9.98406699      13.03561459  T      -0.35221567      -0.33819129      -2.55988205       0.00241617      -0.01725577      -0.00437196      -6.63512802
Co      10.39569329       2.52832629      12.93693039  T       0.64073547       1.18908628      -1.05142228       0.00720573       0.00515094      -0.00430781      -6.25463820
Co       9.17689828       6.42582585      12.86496904  T      -0.04492811       0.01614678      -2.58602496      -0.01379199       0.01104078      -0.00947911      -6.60790014
Co      -0.51783448      14.00475788       9.25089359  F       0.00000000       0.00000000       0.00000000      -0.04570513      -0.37238657       0.30772367      -5.37144756
Co       1.84454656       3.14926696      11.24033356  F       0.00000000       0.00000000       0.00000000      -0.01611893       0.88656414      -0.07366062      -5.01436472
Co       7.61511421      10.63554192      11.24033356  F       0.00000000       0.00000000       0.00000000       0.04771964       0.34063998      -0.43064547      -5.79485750
Co       2.85253187       8.48126255      16.79197602  T       1.66175238       1.78871768      -1.05140784      -0.02371760       0.00656469       0.00814490      -5.45643330
Co      12.12894805       0.84053189      17.27797019  T      -0.87840893       0.01595365       1.94906519       0.00069532      -0.02286901       0.01794422      -6.30446243
Co       9.62552588      11.66474771      15.20666749  T       0.46104558       1.19963911       0.60536477       0.00998024       0.00748830       0.01295806      -5.87822771
Co       3.96508979       4.37990797      15.23610117  T      -0.99796549       0.13079052       1.84157425      -0.00244155      -0.01570535       0.00554129      -6.64591312
Co      11.50123094      10.31880791      15.23658582  T       0.28068667      -0.47821621       0.50647139       0.01376192       0.00387637       0.00628376      -6.20999432
Co       6.03811630       3.07199533      15.23233107  T      -1.00884781       0.49468180       3.96011029       0.00070655      -0.00937378       0.00179547      -6.56994963
Co      10.75427654       4.79172966      16.99005770  T      -0.31670921       0.38869477      -0.40387441      -0.00052886       0.00877681      -0.01362364      -5.58526468
Co       1.36343850      12.36705491      13.18444736  T      -1.28904375       0.74892112       0.88391939      -0.00757861      -0.00216853       0.00552857      -6.65827560
Co      -0.16798453       4.39112763      15.27131759  T      -2.01721437       1.24272185       1.69677981      -0.00161475       0.00564228       0.00058311      -6.54334688
Co       5.58466064      11.91175794      15.16912041  T       0.31643242      -1.01043284       0.95769421       0.00376735       0.00269183       0.01131137      -5.70583534
Co       0.75111539       9.41393693      17.00749863  T       1.42551608       2.07134894       0.17635277      -0.00371996      -0.04603922      -0.01395664      -5.42314339
Co      10.46231845       2.50130660      17.18679703  T       1.26826940       0.91246955       0.48596679      -0.00110059      -0.01931848       0.00483058      -6.11308146
Co       9.04353440       6.37668889      16.76867461  T      -0.53941651       0.31104271      -1.26687147       0.02129859       0.00979241      -0.00191125      -5.52364492
Co      -0.49962631      13.94978512      13.25238398  T      -0.62061918       1.10061100       2.39192787       0.00460527      -0.00509726       0.00200522      -6.54803896
Co       1.86460853       3.10149445      15.30399050  T       0.78069049      -0.11674337       1.48361565      -0.00704371      -0.00762649       0.00628890      -6.61770439
Co       7.54862586      10.70490008      15.28069040  T       0.12280187      -0.18341074       1.04434220       0.00254429      -0.01854067       0.00021596      -6.44872141
Y        9.56817762       9.70078202      13.17152588  T      -0.64938975       0.82146704      -0.19155871       0.01262769      -0.00885820       0.00504383      -7.50784397
Y        3.74079832       2.03237747      13.16481278  T      -1.95344163      -0.29487740       1.36714941      -0.00378034       0.00254788      -0.00003268      -7.51227665
Y       12.35783672       3.26628304      11.24033356  F       0.00000000       0.00000000       0.00000000       0.39170343      -0.22420022       0.13915138      -6.90229988
Y        2.64574003      10.75255775      11.24033356  F       0.00000000       0.00000000       0.00000000      -0.11520799       0.24454111      -0.10713728      -7.04739237
Y       -2.37984834       9.26316046      13.22919837  T      -1.14255241      -0.17581358      -0.50585851      -0.00327370      -0.00516008       0.00172286      -6.66575003
Y        7.34087563       1.73724977      13.24816010  T      -1.41411898       0.17104929       2.48790523      -0.00150743       0.00302188      -0.00071297      -6.63708544
Y       13.86469705       5.61938346      13.24824735  T       0.46460677       0.75597215       0.99201361      -0.00051540      -0.01449928       0.00374879      -6.65731478
Y        4.16964054      13.17344666       9.25089359  F       0.00000000       0.00000000       0.00000000      -0.34899107      -0.43828970       0.56686080      -6.10385942
Y       11.14714432       6.98271179      11.24033356  F       0.00000000       0.00000000       0.00000000       0.18338543       0.10099867      -0.16543035      -6.62963724
Y        1.43504775      14.46898651      11.24033356  F       0.00000000       0.00000000       0.00000000       0.14065039      -0.02061100      -0.04487571      -7.27188015
Y       -0.81670117      11.70626640      11.24033356  F       0.00000000       0.00000000       0.00000000      -0.20687534      -0.01992416      -0.18095186      -7.33167410
Y        8.89539528       4.21999168      11.24033356  F       0.00000000       0.00000000       0.00000000      -0.27075210      -0.18090208      -0.01409692      -6.85137987
Y        3.93658876       7.38591671      11.24033356  F       0.00000000       0.00000000       0.00000000      -0.04091906      -0.58457452      -0.25958139      -6.34502411
Y        9.70715618      14.87219143      11.24033356  F       0.00000000       0.00000000       0.00000000       0.01386936      -0.35294262       0.08427180      -6.72900009
Y        0.39399123       7.98983765      11.24033356  F       0.00000000       0.00000000       0.00000000      -0.22352424      -0.26680768      -0.04272912      -6.70503426
Y       10.18522341       0.43629190      15.17260650  T       1.26930234       1.86845079       1.15629164       0.00611461      -0.00097656      -0.00001700      -7.17947435
Y       -0.11699829       2.30602699      13.27098743  T       0.78619329      -1.10748449      -0.24916054       0.00975663       0.00199643      -0.00391939      -7.17876673
Y        5.64748223       9.96753758      13.20467578  T      -2.02713920      -0.45706600      -1.27862192       0.00830390      -0.00191393       0.00874590      -7.18565512
Y       11.65617561      12.55751133       9.25089359  F       0.00000000       0.00000000       0.00000000      -0.04001321      -0.24727637       1.23486865      -6.29239416
Y        5.91564038       4.97322946      13.19219825  T      -0.21133834       2.16278598       0.31317437      -0.00434662       0.00418849       0.00307985      -7.22568178
Y        7.60454655       7.58663273      11.24033356  F       0.00000000       0.00000000       0.00000000      -0.05837312       0.41034636      -0.33138850      -6.30110264
Y        1.83031895       0.05263097      15.28734288  T       0.29764311      -0.80991707       0.21725847       0.00189205       0.00780640      -0.00212251      -6.71476936
Y        1.94463405       5.23047448      13.18564544  T      -0.48068298       0.09181345      -0.97557714      -0.00627198      -0.01036295       0.01978553      -7.53317261
Y        7.75397968      12.78219700       9.25089359  F       0.00000000       0.00000000       0.00000000       0.22060797      -0.21871369       0.96035713      -6.58461142
Y        9.44883520       9.48033880      16.89177660  T       0.83287478       0.28832261      -1.43029427       0.00039147      -0.01151150      -0.00699830      -6.91705894
Y        3.89427081       2.25839436      16.98864094  T       2.37320858      -0.08321853      -0.80006976      -0.00731707      -0.00125015       0.00302212      -6.82253075
Y       12.33091471       3.19952844      15.04180030  T      -0.12720598      -0.63076403      -1.56242374      -0.01136489      -0.00689631      -0.00638172      -7.50970507
Y        2.68656143      10.67076527      15.01958609  T       0.60574377       0.52880938       0.03514164      -0.00778818      -0.01666660       0.00854588      -7.17304802
Y       -2.29054351       9.26912760      16.96116222  T      -4.52318241       3.01691378      -0.82922933       0.02401873      -0.03230642       0.00037156      -6.90804386
Y        7.65360210       1.99090244      17.04389504  T       0.36731981      -0.37384024      -2.23981497      -0.00371972      -0.00633929      -0.00208377      -6.40182018
Y       13.74161054       5.74805725      16.96994347  T       0.94731458      -1.03624415      -2.04577023      -0.00577009      -0.02435839       0.01041071      -6.93721962
Y        4.18989230      13.19552985      13.02636883  T      -0.38833610      -0.67928790       0.89858583       0.00336749       0.00483988      -0.01272371      -6.68454790
Y       11.07156768       6.97727052      14.94398821  T      -0.21972553       3.14628181      -0.31022237       0.01179615      -0.00846099      -0.00454098      -7.18513489
Y        1.53067236      14.34109547      14.91000557  T       1.54463398      -0.47734998      -1.39499039       0.00064796       0.00662776      -0.00245180      -6.50898123
Y       -0.64070971      11.59743014      14.96657504  T       1.89501165       1.42351655      -0.80950872       0.00843304      -0.03515788       0.01029085      -6.84811592
Y        8.92913768       4.21362506      14.90096489  T       2.50493840      -0.57515282      -1.21986446       0.00154577      -0.00438944       0.01147981      -7.44755745
Y        4.01951380       7.33053783      14.73372613  T      -0.55658295       1.63298605       1.14876582       0.01250567      -0.01352140      -0.02324922      -6.58395481
Y        9.68315335      14.46120928      15.06278460  T      -1.02154308      -2.62485791      -1.31788562      -0.00269385      -0.00833312      -0.00377888      -6.20175648
Y        0.34459050       7.83131437      14.95179881  T      -0.05406664      -2.30251400      -5.50240270      -0.00089470       0.02894223       0.03853285      -7.41223335
Y       10.17211519       0.38672859      18.91356685  T      -1.02412121       2.46768935      -3.29868279       0.00638384      -0.00314533      -0.00328938      -6.48771858
Y       -0.13562985       2.44854595      17.05174804  T       1.30453363       0.22568648      -2.75782419      -0.00635478       0.00127995       0.01300304      -6.69155455
Y        5.48179675       9.77907247      16.83382905  T       0.73431066      -0.15665092      -2.66855135      -0.00616330       0.00587402       0.00188555      -6.67818928
Y       11.68986703      12.48139066      13.10831472  T       0.19552313      -0.83291885      -1.91202909      -0.00133227       0.00683416      -0.01037394      -7.17277718
Y        6.02965815       5.24815130      16.85661041  T      -0.03960398       0.63237318      -2.39024122      -0.00572108      -0.00064991       0.00235244      -6.71032238
Y        7.58867626       7.60484133      14.77813789  T       0.23032689       1.87570107      -0.59202736       0.00216794       0.00134979       0.00213003      -6.58592701
Y        1.95041625      -0.01214159      18.94336596  T       1.03636388      -0.22256128      -2.21501649      -0.00170421      -0.01137704      -0.00226271      -5.99122334
Y        2.09517785       5.41468053      16.89258569  T      -0.79123438      -1.52111555      -1.60076063      -0.01146385      -0.00316171      -0.01121362      -6.87110949
Y        7.69878641      12.76296882      13.05428391  T       0.64637742       0.85853200      -0.81409405      -0.00019799      -0.01003355      -0.00231956      -7.46960163
N       -0.59191124       7.80467417      17.34211235  T       0.97321625      -3.00635500       4.89185135       0.03610814       0.00511748       0.04625157      -9.02189064
H       -0.13628147       7.51030558      18.21091262  T      -0.03160562       0.17782810       0.34738804      -0.01967056       0.02015850      -0.06513241      -3.84240842
