56
Lattice="13.63385009765625 0.0 8.000000134899068e-16 1.3000000153036537e-15 7.871507167816162 -3.780327320098877 0.0 0.0 34.022945404052734" Properties=species:S:1:pos:R:3:move_mask:L:1:momenta:R:3:forces:R:3:energies:R:1 adsorbate_info="_JSON {\"site\": {\"coordinates\": [6.81692505, 2.06025004, 19.42668343], \"connectivity\": 1, \"topology\": [24], \"n_vector\": [0.044522182655707655, -0.0019439457599366757, 0.9990065046467187], \"h_vector\": [1.0, 0.0, 0.0], \"site_formula\": {\"Sc\": 1}}, \"smiles\": \"Cl\", \"mdf\": 1.70195767766959, \"adsorbate_formula\": \"HO\"}" bond_change_count=0 energy=-338.9990539550781 stress="0.0003938422887586057 2.547397116359207e-06 9.387224508827785e-07 2.547397116359207e-06 0.00038432510336861014 -8.455051283817738e-05 9.387224508827785e-07 -8.455051283817738e-05 0.0001881734497146681" free_energy=-338.9990539550781 pbc="T T F"
Sc       6.81692505       2.06025004      11.86602783  F       0.00000000       0.00000000       0.00000000       0.00053269       0.40345845      -0.12644522      -6.56993008
Sc       0.00000000       5.99600363      11.86602783  F       0.00000000       0.00000000       0.00000000      -0.00510227       0.11409597       0.07737432      -6.34469271
Sc       1.62423372       0.93775177      11.86602783  F       0.00000000       0.00000000       0.00000000      -0.30969876      -0.11344007       0.49300325      -5.98239708
Sc       8.44115829       4.87350512      11.86602783  F       0.00000000       0.00000000       0.00000000      -0.78115696      -0.39329156      -0.07878345      -6.34338427
Sc       5.19269133       4.87350512      11.86602783  F       0.00000000       0.00000000       0.00000000       0.77675295      -0.38770726      -0.08378485      -6.34286118
Sc      12.00961685       0.93775177      11.86602783  F       0.00000000       0.00000000       0.00000000       0.30746660      -0.11528169       0.49819031      -5.98562431
Sc       6.81692505       7.02371693       9.97586441  F       0.00000000       0.00000000       0.00000000      -0.00105222      -0.34664690      -0.22130829      -6.72217131
Sc       0.00000000       3.08796358       9.97586441  F       0.00000000       0.00000000       0.00000000      -0.00069317       0.32068169       0.94480687      -4.81782055
Sc       4.14267015       2.39177179      13.75619125  F       0.00000000       0.00000000       0.00000000      -0.14665177      -0.44951355      -0.09717760      -6.62429762
Sc      10.95959568       6.32752514       9.97586441  F       0.00000000       0.00000000       0.00000000       0.16429944       0.38502869       0.01411384      -6.13117790
Sc       2.67425489       6.32752514       9.97586441  F       0.00000000       0.00000000       0.00000000      -0.16565146       0.39185891       0.02678239      -6.13205099
Sc       9.49117947       2.39177179      13.75619125  F       0.00000000       0.00000000       0.00000000       0.12951171      -0.46764949      -0.11649490      -6.62286091
Sc       6.81333804       2.15398738      15.57987057  T      -0.26117219       0.98919840       0.16318373       0.01567354       0.00639841       0.01804025      -6.35823536
Sc       0.00390606       5.97221084      15.49302217  T      -0.40656545       1.18578475       1.42527274       0.00819442       0.01357216      -0.00257787      -6.11045361
Sc       1.50460539       0.87773638      15.56830113  T      -0.91927251      -0.68355719       0.93201459       0.02683491       0.00594763      -0.00353253      -6.28795528
Sc       8.46311104       4.96382733      15.47432140  T      -0.17571887      -1.03508544      -0.30718998      -0.01118366      -0.02248474       0.02398727      -6.29288292
Sc       5.17517587       4.96198906      15.49559740  T       0.55275662      -0.34736234       1.67240344       0.00366393       0.00009368       0.00191263      -6.29514408
Sc      12.11064273       0.88303114      15.54705578  T       2.25121417      -0.75643578       0.10106906      -0.01923445       0.00408363       0.01192251      -6.28282738
Sc       6.81692505       7.02371693      13.75619125  F       0.00000000       0.00000000       0.00000000      -0.00689418       0.37113780      -0.22282052      -6.40842295
Sc       0.00000000       3.08796358      13.75619125  F       0.00000000       0.00000000       0.00000000      -0.01481640      -0.20729530      -0.62981439      -6.58952999
Sc       4.00107137       2.40750698      17.42012198  T       0.82653799       0.94085248       0.47647475       0.02027851      -0.02600347       0.00438740      -6.57231236
Sc      10.95959568       6.32752514      13.75619125  F       0.00000000       0.00000000       0.00000000       0.05260502      -0.09366187      -0.37165064      -6.54652739
Sc       2.67425489       6.32752514      13.75619125  F       0.00000000       0.00000000       0.00000000      -0.00327903      -0.10822736      -0.35587060      -6.52007723
Sc       9.60122209       2.39984601      17.43155236  T       1.17215503       0.32530621       0.63147398       0.03927410       0.01956427      -0.01425974      -6.59452343
Sc       6.80610177       2.25811717      18.81504977  T       1.14917537       0.14866589      -3.24490505      -0.03661923      -0.04197794      -0.06295636      -5.79547024
Sc       0.02578361       5.68454285      19.23682024  T       0.16315039      -0.11974443      -2.63750549      -0.02779248      -0.02531669       0.01876010      -5.60391521
Sc       1.53851312       0.97422265      19.25056241  T      -0.56938136      -1.00188025      -0.65572300      -0.00041774      -0.03232373       0.00905907      -6.38580036
Sc       8.38303461       4.99781404      18.81694750  T      -0.02329520       0.58873084      -0.90745118       0.01703747      -0.00279119       0.00458328      -5.85385990
Sc       5.23406834       4.96557241      18.86601093  T       0.66634450       0.78517733      -1.47273515      -0.01566753       0.03795455      -0.07059352      -6.13266420
Sc      12.10892670       0.98090598      19.29091937  T       1.65123294      -0.58380446      -0.15136220       0.00333755      -0.02606910      -0.01137398      -6.39560223
Sc       6.79746294       7.45419401      17.22275991  T      -0.15728268       0.50013008      -0.12415606      -0.01703069      -0.04236978       0.00881357      -6.41083050
Sc      -0.01937175       3.17649488      17.37117004  T       0.59815969       0.17662599      -0.74170236       0.02308863       0.00037315      -0.00248054      -6.51292419
Sc       4.94023335       2.38976951      21.00385888  T       2.48103943      -0.04324860      -2.15661025      -0.04147065      -0.01916292      -0.00519127      -6.51830912
Sc      11.21274024       6.20731103      17.36935399  T       0.16667686      -0.03842837      -2.10537812       0.00976908      -0.03218150       0.01705359      -6.27657318
Sc       2.45307189       6.21628372      17.34912017  T       0.37398631      -1.48962244      -1.40075753      -0.00646576      -0.02372971       0.04448096      -6.25862408
Sc       8.64107675       2.29695262      21.09377921  T      -0.03272163      -1.26817868      -0.76071633       0.01103473      -0.01954627      -0.03747511      -6.77999210
Ni       6.81692505       3.93575358       9.97586441  F       0.00000000       0.00000000       0.00000000      -0.00086532       0.93847430       1.35680974      -3.83187127
Ni       0.00000000       0.00000000      13.75619125  F       0.00000000       0.00000000       0.00000000      -0.00039215      -0.00685573      -0.33349586      -5.81053305
Ni       6.81692505       3.93575358      13.75619125  F       0.00000000       0.00000000       0.00000000      -0.01032864      -0.03734833      -0.26015323      -6.14611912
Ni      -0.03790190      -0.01117819      17.48349017  T       0.00355564      -0.23602587       0.11611387       0.03081111       0.01063084       0.00951294      -6.17797232
Ni       6.82784706       4.17842883      17.15010651  T       0.67192611       1.13857528       0.22590377       0.02856916      -0.00209683       0.01321111      -6.03932285
Ni       0.01979295      -0.50993363      21.21978068  T      -1.17499829       0.29255572       0.14840580      -0.00764939      -0.04469398       0.00982496      -5.17188549
Te       2.27230835       3.93575358      11.86602783  F       0.00000000       0.00000000       0.00000000      -0.25178942      -0.05580201      -0.50809115      -5.57465553
Te       9.08923340       0.00000000      11.86602783  F       0.00000000       0.00000000       0.00000000       0.00145846       0.14883697       0.17823240      -4.62275219
Te       4.54461670       0.00000000      11.86602783  F       0.00000000       0.00000000       0.00000000      -0.00256008       0.14926395       0.17357278      -4.62091732
Te      11.36154175       3.93575358      11.86602783  F       0.00000000       0.00000000       0.00000000       0.25137967      -0.05567254      -0.51192188      -5.57559204
Te       2.23834926       3.87605293      15.53495350  T      -2.09580390      -0.71210370      -0.72006862       0.02158026      -0.02398212       0.01632285      -6.07913876
Te       9.10021684      -0.01299018      15.62237919  T       0.39750756      -0.50490775       1.01376381       0.00459490       0.00745783       0.00890482      -5.96434879
Te       4.52839714      -0.01059598      15.61841547  T       0.07343312      -0.67108484       0.50554580      -0.00848297      -0.01110750       0.00850328      -5.95939112
Te      11.38268153       3.87788244      15.53440719  T       0.71593239      -1.24776733       0.81778158      -0.03527746      -0.00659658       0.02739272      -6.07759380
Te       2.48807650       3.84329085      19.52876021  T      -1.53458797      -0.27983217      -0.81285989       0.01122043      -0.02198534       0.00243139      -5.06759739
Te       9.24555449       0.07197404      19.37507569  T       0.76985902       3.16831092      -0.70228707      -0.00748029      -0.01532134      -0.00510313      -5.76319265
Te       4.41624439       0.09230450      19.35630687  T       1.04160871      -1.01899086      -0.94665005      -0.02686001      -0.02017996      -0.00210630      -5.80903721
Te      11.15304166       3.86041542      19.51224375  T       0.88063469      -2.71244642       0.44068907      -0.00860062      -0.01082662       0.02819386      -5.03256273
O        6.87203252       1.81237703      21.19804350  T      -2.43685636      -1.86606005       4.76767934      -0.00436378       0.03036371       0.01112381      -9.28258228
H        6.09590110       3.74738457      20.09747810  T      -0.32431811       1.29462491       0.68540450       0.01655933      -0.05013546       0.07415465      -3.98926878
