56
Lattice="13.63385009765625 0.0 8.000000134899068e-16 1.3000000153036537e-15 7.871507167816162 -3.780327320098877 0.0 0.0 34.022945404052734" Properties=species:S:1:pos:R:3:move_mask:L:1:momenta:R:3:forces:R:3:energies:R:1 adsorbate_info="_JSON {\"site\": {\"coordinates\": [9.0892334, 0.0, 19.42668343], \"connectivity\": 1, \"topology\": [51], \"n_vector\": [-0.18962597518544236, 0.035912705834979734, 0.9811994023105499], \"h_vector\": [1.0, 0.0, 0.0], \"site_formula\": {\"Te\": 1}}, \"smiles\": \"Cl\", \"mdf\": 1.701957677669591, \"adsorbate_formula\": \"HO\"}" bond_change_count=0 energy=-338.1531982421875 stress="0.0003894955152645707 1.1706102895914228e-06 -8.406597657995007e-07 1.1706102895914228e-06 0.00030653414432890713 -6.332584598567337e-05 -8.406597657995007e-07 -6.332584598567337e-05 0.00016158889047801495" free_energy=-338.1531982421875 pbc="T T F"
Sc       6.81692505       2.06025004      11.86602783  F       0.00000000       0.00000000       0.00000000       0.00846265       0.38826534      -0.14251089      -6.56688881
Sc       0.00000000       5.99600363      11.86602783  F       0.00000000       0.00000000       0.00000000       0.01090852       0.12350002       0.06770414      -6.34220695
Sc       1.62423372       0.93775177      11.86602783  F       0.00000000       0.00000000       0.00000000      -0.30532861      -0.12078011       0.50114679      -5.98621273
Sc       8.44115829       4.87350512      11.86602783  F       0.00000000       0.00000000       0.00000000      -0.76782018      -0.39963010      -0.11147786      -6.34381962
Sc       5.19269133       4.87350512      11.86602783  F       0.00000000       0.00000000       0.00000000       0.79770702      -0.40844798      -0.08497424      -6.33461523
Sc      12.00961685       0.93775177      11.86602783  F       0.00000000       0.00000000       0.00000000       0.30344731      -0.11264715       0.49964666      -5.97459412
Sc       6.81692505       7.02371693       9.97586441  F       0.00000000       0.00000000       0.00000000      -0.04824356      -0.36424211      -0.26644963      -6.72268343
Sc       0.00000000       3.08796358       9.97586441  F       0.00000000       0.00000000       0.00000000       0.00277495       0.31720084       0.94569856      -4.81442451
Sc       4.14267015       2.39177179      13.75619125  F       0.00000000       0.00000000       0.00000000      -0.13945839      -0.45910600      -0.05380581      -6.61251354
Sc      10.95959568       6.32752514       9.97586441  F       0.00000000       0.00000000       0.00000000       0.20045476       0.35435268      -0.07124713      -6.13931274
Sc       2.67425489       6.32752514       9.97586441  F       0.00000000       0.00000000       0.00000000      -0.14756228       0.39589101       0.03903249      -6.12702799
Sc       9.49117947       2.39177179      13.75619125  F       0.00000000       0.00000000       0.00000000       0.22311687      -0.30462381      -0.04994062      -6.60351658
Sc       6.79892775       2.08852266      15.59904857  T      -0.68405055       0.60610198      -0.67772853       0.02866319       0.05161990      -0.00386490      -6.37852001
Sc      -0.05491302       6.03054462      15.61859407  T      -0.05640493       1.65721008       0.68820849       0.02464415       0.01821387       0.02763909      -6.22528553
Sc       1.53637917       0.88008997      15.53390341  T      -2.33163535      -0.72390323      -0.31536503      -0.02302039       0.00780024      -0.00115736      -6.27171564
Sc       8.43406114       4.91322652      15.50532241  T       0.72767516      -0.00938304       0.37351536      -0.04911767      -0.04975399      -0.00314373      -6.27089596
Sc       5.27091905       4.84028434      15.57988253  T       0.33543076       0.46935406      -0.55985866       0.02103798       0.00674175      -0.01841308      -6.34682083
Sc      12.11593111       0.89890971      15.53276660  T       1.32606523       0.10236743       0.20593277       0.01707086       0.01825758      -0.00052126      -6.32396841
Sc       6.81692505       7.02371693      13.75619125  F       0.00000000       0.00000000       0.00000000      -0.26536408       0.04786927      -0.35073072      -6.45740891
Sc       0.00000000       3.08796358      13.75619125  F       0.00000000       0.00000000       0.00000000      -0.08208414      -0.12907824      -0.45150435      -6.60056925
Sc       4.00097117       2.46422223      17.54585916  T      -0.33563006       0.75766648       0.71873887       0.01551431      -0.02029871       0.01344030      -6.50841522
Sc      10.95959568       6.32752514      13.75619125  F       0.00000000       0.00000000       0.00000000       0.03524846      -0.30430710      -0.51735079      -6.49915791
Sc       2.67425489       6.32752514      13.75619125  F       0.00000000       0.00000000       0.00000000       0.10413588      -0.12023674      -0.22439907      -6.58186960
Sc       9.58424541       2.51215695      17.41516281  T      -0.52065292       1.51895692       1.50563304      -0.00940904       0.01881437       0.01156790      -6.65257454
Sc       6.78585160       2.13825869      19.01391965  T       0.53122066       0.80561458      -0.61104227      -0.05281922       0.00001979       0.02012127      -5.89494228
Sc      -0.31640592       5.86776250      18.87204635  T      -0.80909827       0.07931484      -2.90523624      -0.00728855       0.04404598      -0.00232365      -5.82988358
Sc       1.67074358       0.93046923      19.23092207  T      -0.42112204       0.02116534      -0.75593367       0.00618948      -0.03583525      -0.02301798      -6.31651735
Sc       8.38576097       4.84117609      19.16199097  T      -0.16222934      -2.19193626      -0.95650875      -0.04054236       0.01291891       0.03501406      -6.08865070
Sc       5.36206968       4.95870163      18.92618775  T       0.64428000      -0.40874814      -1.61284867       0.00081575       0.05503002      -0.01768410      -6.09589767
Sc      12.16128890       0.84055574      19.33349791  T      -0.50558824      -1.25819396      -0.69499374      -0.00318559       0.02506587       0.00846250      -6.32810116
Sc       7.26148556       7.21262475      17.54079250  T       0.78637527       1.48975687       0.91749635       0.04689103      -0.01564401       0.05982259      -6.43061256
Sc       0.04770405       3.06791516      17.37283601  T       0.50646441       0.80259934      -0.15128140       0.00848009      -0.01155528      -0.01058591      -6.58481979
Sc       4.30711287       2.51009253      20.73727788  T       2.77681532       1.65139293      -0.80059334      -0.04734187       0.01982203       0.00723892      -5.25278664
Sc      10.47005402       6.58381108      17.46208531  T      -0.58429535       0.78564168      -1.62696303       0.00556087       0.02651781       0.01341923      -6.42739344
Sc       2.46278258       6.23983699      17.36797281  T       0.60908211      -1.71398304      -0.79617737      -0.01807895      -0.01411408       0.03325509      -6.43927097
Sc       9.40653639       1.73718640      21.37153882  T       0.09751233      -2.75874311      -1.87351153       0.01624608      -0.08180308       0.01650774      -7.23200226
Ni       6.81692505       3.93575358       9.97586441  F       0.00000000       0.00000000       0.00000000      -0.00362459       0.93542731       1.36773419      -3.83065033
Ni       0.00000000       0.00000000      13.75619125  F       0.00000000       0.00000000       0.00000000      -0.00953991       0.00900431      -0.35978171      -5.81189108
Ni       6.81692505       3.93575358      13.75619125  F       0.00000000       0.00000000       0.00000000      -0.02136943      -0.10946658      -0.27626315      -6.14409828
Ni       0.05193731      -0.04382597      17.49193283  T      -0.43150253       1.37805033       1.04958608      -0.00344620       0.00167193      -0.03588819      -6.18528461
Ni       6.99056054       3.93013723      17.36205797  T      -0.46068618      -0.76292388       2.44612367       0.00989202      -0.00147087      -0.01025825      -6.09522057
Ni       0.30414177      -0.19221647      21.12513854  T       0.15825262      -1.83184126      -0.59365464       0.02204194      -0.02508973       0.02118447      -5.01613522
Te       2.27230835       3.93575358      11.86602783  F       0.00000000       0.00000000       0.00000000      -0.25150222      -0.03207387      -0.48894861      -5.57483149
Te       9.08923340       0.00000000      11.86602783  F       0.00000000       0.00000000       0.00000000       0.00083451       0.16316371       0.09056672      -4.58493280
Te       4.54461670       0.00000000      11.86602783  F       0.00000000       0.00000000       0.00000000      -0.00503255       0.15735979       0.20928365      -4.63621330
Te      11.36154175       3.93575358      11.86602783  F       0.00000000       0.00000000       0.00000000       0.26108882      -0.06575543      -0.44937742      -5.60184193
Te       2.26343628       3.89805772      15.54769301  T      -0.44375452      -0.20415402      -1.40086451      -0.00308403       0.01797401       0.00571747      -6.04344416
Te       9.10405291      -0.01286283      15.54253737  T      -0.10656920      -0.55738287      -0.64934060      -0.01267841       0.01091297       0.01950349      -5.89392567
Te       4.51877151      -0.00342879      15.65403902  T      -0.96567634      -0.25536544      -0.07008834       0.00499385       0.02026192      -0.00489369      -5.96452141
Te      11.37735419       4.00173042      15.63314685  T       1.03123569      -1.17512221      -0.01263309      -0.00206568       0.00559173      -0.00393312      -5.98426533
Te       2.13013706       4.00953016      19.40328338  T      -2.34617166      -0.43039547      -0.58980855       0.02273079      -0.01721267      -0.00177819      -5.12177658
Te       9.11360100       0.11841324      19.04281125  T      -0.28268384       0.23747424     -10.39123621       0.04756236       0.01292180       0.07013723      -5.88541269
Te       4.61809107      -0.08145171      19.50244120  T       1.37995302       2.48521980       1.51159305       0.04593251       0.00563113       0.01226743      -5.86834526
Te      11.24711455       3.67380361      19.56975077  T       1.01200640      -0.61530144       2.04172445       0.00744541      -0.01923075       0.02881911      -4.96732616
O        9.07865185       0.11856659      22.18566814  T      -1.09961253       3.90036241       7.73295020       0.02700189      -0.01396614      -0.08425951      -8.44032955
H        6.89808613      -1.67288234      23.10717727  T      -1.47705942       0.99502944       1.19846269      -0.00788659      -0.03549791      -0.00444657      -3.89685655
