56
Lattice="13.63385009765625 0.0 8.000000134899068e-16 1.3000000153036537e-15 7.871507167816162 -3.780327320098877 0.0 0.0 34.022945404052734" Properties=species:S:1:pos:R:3:move_mask:L:1:momenta:R:3:forces:R:3:energies:R:1 adsorbate_info="_JSON {\"site\": {\"coordinates\": [3.609435795000001, 7.09951615390808, 16.59143710495056], \"connectivity\": 2, \"topology\": [34, 52], \"n_vector\": [0.2972396885089367, 0.6364202096111566, 0.7117709493745876], \"h_vector\": [0.6082727949610462, 0.5021286568235482, -0.6147121431262412], \"site_formula\": {\"Sc\": 1, \"Te\": 1}}, \"smiles\": \"S1S\", \"mdf\": 1.7940100106517667, \"adsorbate_formula\": \"HO\"}" bond_change_count=0 energy=-336.1527099609375 stress="0.0004073024610988796 2.569241360106389e-06 -8.330980705295588e-08 2.569241360106389e-06 0.00033989257644861937 -8.369291026610881e-05 -8.330980705295588e-08 -8.369291026610881e-05 0.00022316441754810512" free_energy=-336.1527099609375 pbc="T T F"
Sc       6.81692505       2.06025004      11.86602783  F       0.00000000       0.00000000       0.00000000      -0.00345694       0.41741297      -0.13069741      -6.55905485
Sc       0.00000000       5.99600363      11.86602783  F       0.00000000       0.00000000       0.00000000      -0.00393837       0.03232142      -0.01244576      -6.33473969
Sc       1.62423372       0.93775177      11.86602783  F       0.00000000       0.00000000       0.00000000      -0.30719620      -0.11543829       0.50531507      -5.97715282
Sc       8.44115829       4.87350512      11.86602783  F       0.00000000       0.00000000       0.00000000      -0.80500007      -0.39358068      -0.09394741      -6.32929516
Sc       5.19269133       4.87350512      11.86602783  F       0.00000000       0.00000000       0.00000000       0.79248387      -0.39916259      -0.09784041      -6.33000088
Sc      12.00961685       0.93775177      11.86602783  F       0.00000000       0.00000000       0.00000000       0.30409613      -0.12070101       0.50511044      -5.98586082
Sc       6.81692505       7.02371693       9.97586441  F       0.00000000       0.00000000       0.00000000       0.02185909      -0.34070298      -0.20765455      -6.71943665
Sc       0.00000000       3.08796358       9.97586441  F       0.00000000       0.00000000       0.00000000      -0.00318564       0.31907570       0.94263822      -4.81454182
Sc       4.14267015       2.39177179      13.75619125  F       0.00000000       0.00000000       0.00000000      -0.17809904      -0.36714894       0.02467033      -6.60527706
Sc      10.95959568       6.32752514       9.97586441  F       0.00000000       0.00000000       0.00000000       0.14407116       0.39663562       0.02268770      -6.12535715
Sc       2.67425489       6.32752514       9.97586441  F       0.00000000       0.00000000       0.00000000      -0.17168090       0.38566500      -0.02000275      -6.13381433
Sc       9.49117947       2.39177179      13.75619125  F       0.00000000       0.00000000       0.00000000       0.10184455      -0.44804555      -0.00610604      -6.60887671
Sc       6.81785384       2.13602964      15.67962002  T      -0.05468633       1.60621334       0.30271878      -0.02356043       0.02354918      -0.03535996      -6.38904428
Sc       0.04286265       6.00348879      15.65488301  T      -1.75703988       1.87960696       1.52050339      -0.02007481       0.04289001       0.05389935      -6.29207039
Sc       1.51351765       0.89893779      15.53561858  T      -1.08414717       0.28023409      -1.48256987       0.00261894       0.01862270       0.01170591      -6.30764294
Sc       8.40635111       4.79610503      15.58825487  T      -1.48889106      -0.38291649       0.19391538      -0.00108331      -0.01140641      -0.00366392      -6.31244183
Sc       5.19762058       4.81506187      15.59760738  T       1.43939445       0.31015138      -0.46217613      -0.01151818      -0.03658628      -0.02733332      -6.30954981
Sc      12.10326154       0.88532181      15.53361338  T       1.58031237      -0.12243951      -1.69172459      -0.00808313       0.02682407       0.00983001      -6.28285980
Sc       6.81692505       7.02371693      13.75619125  F       0.00000000       0.00000000       0.00000000       0.16989869      -0.07079187      -0.30043373      -6.47284603
Sc       0.00000000       3.08796358      13.75619125  F       0.00000000       0.00000000       0.00000000       0.06844821      -0.12093711      -0.43676805      -6.60460663
Sc       3.98011718       2.33811864      17.50630401  T       0.09292363       1.04412125      -0.12807620       0.01096036       0.02203052      -0.01094800      -6.56945562
Sc      10.95959568       6.32752514      13.75619125  F       0.00000000       0.00000000       0.00000000      -0.01668930      -0.23293245      -0.33319411      -6.58682299
Sc       2.67425489       6.32752514      13.75619125  F       0.00000000       0.00000000       0.00000000       0.03897963      -0.25094333      -0.31728512      -6.56141663
Sc       9.63457516       2.36491040      17.56442188  T       0.22724331      -0.70968490       0.97077322       0.00607112       0.02335599       0.00094025      -6.51474857
Sc       6.82309679       2.16082191      19.07404360  T       0.16342028       0.89515135      -0.30340429      -0.01380276       0.00640020       0.00255510      -5.90979958
Sc       0.12455234       5.89594144      18.98989458  T      -0.20108363      -1.04329853      -1.29411417       0.01269149      -0.00740772      -0.04449393      -5.82080269
Sc       1.48432335       0.83500286      19.25003443  T      -1.51741684      -0.55845350       0.79540230      -0.00966913       0.01706214       0.01493176      -6.26158094
Sc       8.42135858       4.82379314      19.08063943  T       0.18803887      -1.56820913      -1.58826683      -0.03572576       0.00287099      -0.05003950      -5.86787462
Sc       5.15275332       4.77041029      19.11285180  T       1.50469795      -1.57695633      -0.97975807       0.01157989      -0.00853468      -0.03319213      -5.90527058
Sc      12.00001426       0.90387683      19.19944882  T       1.09181931      -0.52935269      -0.74972511      -0.00628903      -0.01229337       0.02461768      -6.27364445
Sc       6.73177721       6.92059878      17.43732150  T       0.40047144       0.28111610      -0.04303999      -0.01692849      -0.02881411      -0.01303145      -5.99952507
Sc      -0.03456978       3.10160006      17.39105608  T      -0.30077554      -0.03623005      -0.14140037       0.00794129      -0.03323442       0.01350075      -6.60324144
Sc       4.03364437       1.90901171      21.18794151  T      -0.33369836      -2.31161967      -1.54129571       0.03008682      -0.01478958      -0.07310912      -6.87828970
Sc      11.10194340       6.27651825      17.38788245  T      -0.62094761       0.16265044      -0.67300773       0.01627344       0.01036048      -0.02592122      -6.38843107
Sc       2.87243429       6.60563347      17.46965377  T      -0.37035537      -0.73397350      -0.00607019      -0.03971410      -0.00838035      -0.00960676      -6.38155794
Sc       9.40065192       2.33457709      20.82070257  T      -1.35620276      -0.85192624      -1.97167976       0.00880900      -0.00090310      -0.01697224      -5.22634697
Ni       6.81692505       3.93575358       9.97586441  F       0.00000000       0.00000000       0.00000000       0.00049782       0.93950319       1.37477362      -3.83057976
Ni       0.00000000       0.00000000      13.75619125  F       0.00000000       0.00000000       0.00000000       0.00739419       0.00900809      -0.35744476      -5.81027555
Ni       6.81692505       3.93575358      13.75619125  F       0.00000000       0.00000000       0.00000000      -0.00739472      -0.13855430      -0.26046097      -6.14229965
Ni      -0.04032481      -0.09735716      17.44080378  T      -0.28805134       0.93246726       0.74212506      -0.01137343       0.03471963       0.02011166      -6.19329166
Ni       6.77882466       4.11035247      17.47032755  T       0.32944647      -0.42883534       3.33842191      -0.03379038       0.00416754       0.02523891      -6.12417507
Ni      -0.32804869      -0.21374262      21.16193934  T      -0.13114070      -1.29300120      -1.36502539      -0.00772797      -0.00477190      -0.05727280      -5.03764534
Te       2.27230835       3.93575358      11.86602783  F       0.00000000       0.00000000       0.00000000      -0.24868792      -0.05963835      -0.43901435      -5.60268784
Te       9.08923340       0.00000000      11.86602783  F       0.00000000       0.00000000       0.00000000      -0.00259508       0.16171832       0.19325814      -4.62901020
Te       4.54461670       0.00000000      11.86602783  F       0.00000000       0.00000000       0.00000000       0.00512719       0.16374007       0.15000638      -4.60839558
Te      11.36154175       3.93575358      11.86602783  F       0.00000000       0.00000000       0.00000000       0.24857046      -0.05748219      -0.47887194      -5.58321571
Te       2.26407012       3.95284571      15.64532238  T       1.14693350       0.47029098       1.64846640       0.01288165       0.01256860      -0.01147911      -5.98719597
Te       9.10238858       0.00270659      15.63823427  T      -0.09856175      -1.26666964      -0.38095349      -0.00408091       0.00617585      -0.01112307      -5.95013523
Te       4.52922071      -0.00688018      15.59112412  T       0.41415350      -0.15823628       1.23427856      -0.00534189       0.01783010       0.02652993      -5.93066120
Te      11.37609223       3.90368372      15.57397121  T       0.99982909      -1.68428419       1.73624765      -0.01762816      -0.01949007       0.00078828      -6.03611755
Te       2.24014319       3.73052828      19.52463047  T      -2.71760606       1.95690904       0.42926772      -0.00597648       0.02832061      -0.02249733      -5.05855894
Te       9.06135263      -0.11278893      19.37837484  T       0.11016840       0.44547090       0.81532537       0.00487889       0.06807388       0.02764151      -5.98403358
Te       4.58864506      -0.02916701      19.23569236  T       2.04350403      -0.34293804      -3.75013595      -0.00130899       0.06499159       0.04908045      -5.95589161
Te      11.45497839       3.94048276      19.43777456  T       0.46063164      -1.35701043       1.58529164       0.01006994       0.00968435      -0.02889627      -5.18898678
O        3.56832842       8.32092702      18.62865640  T      -0.83789578       3.57324376       6.66781886       0.02832080      -0.04332930      -0.00866735      -8.32966232
H        4.43596041       7.77098123      18.55412394  T      -0.02140414       0.19288889       0.22204432      -0.04485326       0.08042206      -0.02405700      -2.92663145
