56
Lattice="13.63385009765625 0.0 8.000000134899068e-16 1.3000000153036537e-15 7.871507167816162 -3.780327320098877 0.0 0.0 34.022945404052734" Properties=species:S:1:pos:R:3:move_mask:L:1:momenta:R:3:forces:R:3:energies:R:1 adsorbate_info="_JSON {\"site\": {\"coordinates\": [5.925506749999999, 1.2014105307279472, 20.686791900032958], \"connectivity\": 3, \"topology\": [24, 30, 32], \"n_vector\": [0.32255229088327203, -0.5939142056874297, 0.7370386258050675], \"h_vector\": [-2.5608140400676033e-16, -0.8384520730674843, 0.5449753399639641], \"site_formula\": {\"Sc\": 3}}, \"smiles\": \"S1S\", \"mdf\": 1.7575112741887373, \"adsorbate_formula\": \"HO\"}" bond_change_count=0 energy=-336.7506103515625 stress="0.00037452724063768983 -1.1608367458393332e-05 1.1948029168706853e-05 -1.1608367458393332e-05 0.0003039244038518518 -7.485503010684624e-05 1.1948029168706853e-05 -7.485503010684624e-05 0.0001753068354446441" free_energy=-336.7506103515625 pbc="T T F"
Sc       6.81692505       2.06025004      11.86602783  F       0.00000000       0.00000000       0.00000000      -0.00038573       0.39022771      -0.13539481      -6.56700230
Sc       0.00000000       5.99600363      11.86602783  F       0.00000000       0.00000000       0.00000000       0.00222786       0.11744033       0.07031934      -6.34287548
Sc       1.62423372       0.93775177      11.86602783  F       0.00000000       0.00000000       0.00000000      -0.30504066      -0.11528455       0.49736276      -5.98517513
Sc       8.44115829       4.87350512      11.86602783  F       0.00000000       0.00000000       0.00000000      -0.79083312      -0.39249417      -0.08091763      -6.33693027
Sc       5.19269133       4.87350512      11.86602783  F       0.00000000       0.00000000       0.00000000       0.79554236      -0.39313874      -0.09692031      -6.33854151
Sc      12.00961685       0.93775177      11.86602783  F       0.00000000       0.00000000       0.00000000       0.30875164      -0.11438204       0.49976972      -5.98162031
Sc       6.81692505       7.02371693       9.97586441  F       0.00000000       0.00000000       0.00000000       0.02294927      -0.35654747      -0.23455383      -6.72228432
Sc       0.00000000       3.08796358       9.97586441  F       0.00000000       0.00000000       0.00000000       0.00088989       0.32001609       0.94503003      -4.81759262
Sc       4.14267015       2.39177179      13.75619125  F       0.00000000       0.00000000       0.00000000      -0.11740372      -0.44829252      -0.12431899      -6.62702608
Sc      10.95959568       6.32752514       9.97586441  F       0.00000000       0.00000000       0.00000000       0.15762301       0.39812768       0.04236048      -6.12571573
Sc       2.67425489       6.32752514       9.97586441  F       0.00000000       0.00000000       0.00000000      -0.16589823       0.37863699       0.00225109      -6.12793159
Sc       9.49117947       2.39177179      13.75619125  F       0.00000000       0.00000000       0.00000000       0.16358486      -0.46225560      -0.08840796      -6.61812544
Sc       6.83553929       2.10635490      15.58060412  T       0.65026027       0.86988888       0.11475235      -0.00979501       0.02638248       0.03206966      -6.36655140
Sc       0.03301577       5.99094376      15.54351166  T       1.01331725       2.60803693       1.27041299       0.00507414       0.01239830       0.01022357      -6.17851305
Sc       1.52617960       0.87770824      15.54498713  T      -1.69879512      -0.15619247      -0.92408469       0.01830250       0.01434606      -0.00623989      -6.28674936
Sc       8.40774520       4.88212695      15.55225628  T      -0.39400639      -0.80645727       0.83238703       0.01555292      -0.01184015      -0.00130588      -6.30734682
Sc       5.23397575       4.88397651      15.56806892  T      -0.15972552      -0.14092649      -0.29009028      -0.03154424      -0.01381822      -0.00182346      -6.28053284
Sc      12.11951340       0.87549745      15.55806134  T       0.95733560      -0.63336898       0.12349262      -0.00345281       0.01508318      -0.00063482      -6.29073095
Sc       6.81692505       7.02371693      13.75619125  F       0.00000000       0.00000000       0.00000000       0.06129324       0.10516730      -0.31918114      -6.44578362
Sc       0.00000000       3.08796358      13.75619125  F       0.00000000       0.00000000       0.00000000       0.00780904      -0.18139029      -0.56580621      -6.58729267
Sc       4.06243674       2.38266690      17.46401434  T      -1.83263763       0.21504619       0.66474599      -0.01245353       0.01237082       0.00617137      -6.61054611
Sc      10.95959568       6.32752514      13.75619125  F       0.00000000       0.00000000       0.00000000      -0.06606556      -0.17990881      -0.25082403      -6.53979492
Sc       2.67425489       6.32752514      13.75619125  F       0.00000000       0.00000000       0.00000000       0.02911937      -0.24065077      -0.33913180      -6.53247690
Sc       9.62464361       2.40629565      17.51635406  T      -0.88994481       1.92946416       1.61624588       0.01562607       0.00549959      -0.03062527      -6.54221153
Sc       6.88236721       2.13802766      18.91996424  T      -0.22578594       0.48581162      -0.63723337      -0.03754695       0.03447276      -0.01085327      -5.71061468
Sc       0.10649880       5.90407210      19.01693261  T       0.16106363       0.55433328      -0.98903780       0.01627623      -0.01162881       0.00304723      -5.69816494
Sc       1.57729849       0.91697605      19.30851628  T      -0.77909889      -0.00260801      -0.75481692      -0.02710164       0.00835206      -0.00341054      -6.36392736
Sc       8.40363616       4.93993916      18.90621716  T      -1.23195532      -0.81558639      -0.75957397      -0.02049373      -0.00821926       0.00556721      -5.87220097
Sc       5.26612094       4.84397995      18.99420911  T       0.38589993      -1.42611084      -0.20396125      -0.00860102      -0.00081617      -0.01438306      -5.90185356
Sc      12.04353444       0.93402940      19.22656813  T       1.47731486      -0.48869835      -1.40367560       0.01205253       0.01737194      -0.00510803      -6.31768990
Sc       6.66251351       7.49138747      17.49451595  T       1.73236031      -0.45689091      -0.25249402       0.06163743      -0.02669245      -0.02868871      -6.71109724
Sc       0.02289494       3.13329646      17.37742009  T      -0.38386998       0.75063498      -0.00614257      -0.01062062       0.03276771       0.02392752      -6.60647821
Sc       4.60247882       2.16158355      21.03774340  T       2.50973743      -2.91937179      -1.31417744      -0.01428330      -0.01093018      -0.07759529      -6.56531811
Sc      11.15662533       6.27278729      17.30789842  T       2.05686559       0.08266486      -0.66151165       0.02045749       0.01679444      -0.00209127      -6.30427265
Sc       2.66868830       6.23859840      17.29883881  T      -1.35415619       0.32703721       0.34551610      -0.01359451       0.01595888      -0.00469700      -6.19377375
Sc       9.25830696       2.49430697      20.74849300  T       0.66208349      -0.74783780      -1.54639321      -0.02210919       0.00012752      -0.01340783      -5.27393484
Ni       6.81692505       3.93575358       9.97586441  F       0.00000000       0.00000000       0.00000000       0.00017828       0.93991876       1.36676657      -3.83076525
Ni       0.00000000       0.00000000      13.75619125  F       0.00000000       0.00000000       0.00000000      -0.00308819      -0.00795820      -0.34551400      -5.81253672
Ni       6.81692505       3.93575358      13.75619125  F       0.00000000       0.00000000       0.00000000       0.00975596      -0.06699070      -0.26299468      -6.14114380
Ni       0.03816155      -0.01505875      17.48456601  T       0.28201597      -0.35691420       1.07141147      -0.01092877      -0.00838731      -0.00661468      -6.18301725
Ni       6.81383375       3.98261305      17.32013073  T       0.37982930      -0.93594648       1.89642394       0.00228557      -0.00524286       0.06448273      -6.08553123
Ni      -0.09975922      -0.28297882      21.07527541  T      -1.15387049      -0.79149388       0.09698285      -0.00380013      -0.00222163      -0.00614689      -5.16557932
Te       2.27230835       3.93575358      11.86602783  F       0.00000000       0.00000000       0.00000000      -0.25631660      -0.06387017      -0.51438725      -5.57612658
Te       9.08923340       0.00000000      11.86602783  F       0.00000000       0.00000000       0.00000000       0.00210320       0.15240631       0.19467530      -4.62979221
Te       4.54461670       0.00000000      11.86602783  F       0.00000000       0.00000000       0.00000000      -0.00085322       0.14774209       0.15333694      -4.61310673
Te      11.36154175       3.93575358      11.86602783  F       0.00000000       0.00000000       0.00000000       0.24636737      -0.04061956      -0.50168085      -5.57702923
Te       2.27758706       3.87439482      15.54747386  T      -1.32501821      -1.02569187       2.44794358      -0.00746791      -0.01836544       0.01565245      -6.05607796
Te       9.11114265      -0.00450507      15.63955592  T      -0.69691623       0.86928148      -0.17551003       0.00448759      -0.01414607      -0.00224523      -5.96353722
Te       4.54086417      -0.00443178      15.60159365  T      -3.52980460       2.38767519       0.46119226      -0.02349680      -0.02570624       0.01729573      -5.94673443
Te      11.37984781       3.87863384      15.54968717  T      -0.50103420       0.04692561      -1.16637409      -0.00823330      -0.00206881       0.02710988      -6.04131460
Te       2.35736788       3.87919255      19.41970650  T       1.95667068      -1.41334503       0.21006410      -0.01814329       0.00416610       0.01886982      -5.10024214
Te       9.05962345      -0.03898815      19.41373259  T      -0.46381963       0.53207126       2.15946015       0.02490074       0.01710416      -0.02637297      -5.93376637
Te       4.54159111      -0.01213154      19.28046604  T       1.18754272      -0.29254686       0.16740003       0.02328390       0.04243810       0.03016144      -5.91424561
Te      11.42031724       3.97423230      19.37084472  T       0.39169529      -0.94886804       3.41424075      -0.00961566       0.00309482       0.01934493      -5.17794132
O        5.83328553       1.26810676      22.29713018  T       0.13340377       3.17747343       1.05390631      -0.00591618       0.00302637       0.02752900      -8.95451927
H        6.06384886       1.49479697      23.20921376  T      -0.35905935       0.07570882       0.51747955      -0.02304851      -0.00757138       0.02895284      -2.96894550
