87
Lattice="13.315120697021484 -0.0 -8.000000134899068e-16 -1.2000000467046398e-15 7.687488555908203 -2.748189687728882 -0.0 3.700000002833815e-15 30.230087280273438" Properties=species:S:1:pos:R:3:move_mask:L:1:momenta:R:3:forces:R:3:energies:R:1 adsorbate_info="_JSON {\"site\": {\"coordinates\": [7.59321165, 0.50310314, 17.96138382], \"connectivity\": 1, \"topology\": [3], \"n_vector\": [-0.48521632019542876, 0.451765059476074, 0.7486477500484366], \"h_vector\": [1.0, 0.0, 0.0], \"site_formula\": {\"Cr\": 1}}, \"smiles\": \"Cl\", \"mdf\": 1.7535142417301466, \"adsorbate_formula\": \"CHO\"}" bond_change_count=0 energy=-770.4552612304688 stress="0.0005147497286088765 1.6861577023519203e-05 1.5216053725453094e-05 1.6861577023519203e-05 0.00036883633583784103 -1.5271658412530087e-05 1.5216053725453094e-05 -1.5271658412530087e-05 0.0003585013619158417" free_energy=-770.4552612304688 pbc="T T F"
Cr       3.60959520       4.09245984      15.25485422  T       0.17084487      -0.85048128       1.29822803       0.02945411       0.09451820      -0.00416629     -10.20504951
Cr      10.14094364       0.30198763      17.93384942  T      -0.46043381      -1.00606918      -0.50278507      -0.02033406      -0.00044800      -0.02402571      -9.25510883
Cr       0.95043893       4.42349626      15.19282938  T      -0.94788070      -0.14452048       1.71021318      -0.04424143       0.03092831       0.02086544     -10.45496178
Cr       7.58694960       0.40780565      17.86275934  T       0.75795840      -0.38477540      -4.27093776       0.02600387       0.03100312      -0.05520016      -9.37331676
Cr       2.14975756       2.22453814      17.59341993  T      -2.56438937       2.48847535      -3.22600289      -0.06707320       0.01938341       0.01165164      -9.80091953
Cr       8.70714879       5.67137534      15.37633874  T      -0.66415368      -0.62996754       2.52379246       0.01321235      -0.00831449       0.01444784     -10.09902096
Cr       3.08478945       6.49366228      16.38764966  T      -0.99228657      -0.11565486      -1.50216903       0.00857944       0.00236383       0.02358791      -8.69598675
Cr       9.51267974       2.90115620      16.87441939  T      -2.37009348       1.09837652       2.16985763      -0.01135415      -0.03839204       0.02317145     -10.47177505
Cr       5.62616446       6.50358586      16.50226133  T      -0.71405905      -1.25800464      -1.85930261      -0.08596960       0.02600405       0.00375608      -9.34261322
Cr      12.53041977       2.37492996      16.96097587  T       1.81379054      -0.49366236       1.99464595      -0.00094576       0.01000071      -0.00594813     -10.46287346
Cr       4.41498702       1.17572616      16.73290241  T      -0.21269266       1.43697663       2.44299681       0.05257332      -0.03905493       0.00052184     -10.03711510
Cr      11.42351673       4.81201182      16.46647716  T       1.08476215      -2.50663970      -0.85009874       0.00055221      -0.06126705       0.05775106      -9.69478321
Cr       3.51657271       4.32285738      12.46500301  F       0.00000000       0.00000000       0.00000000       0.25316280      -0.02719896      -0.09447660     -10.21353340
Cr      10.22292880       0.48636418      15.20028990  T      -0.04247456       0.44254327       0.64973980      -0.01971716       0.04907711       0.00422677     -10.21803379
Cr       0.93565130       4.34684753      12.46500301  F       0.00000000       0.00000000       0.00000000       0.00413382       0.05256540      -0.05496572     -10.29884243
Cr       7.61696377       0.46896715      15.18210316  T       0.06069826      -1.17379758       0.09453534       0.00301993       0.03840530       0.04747696     -10.12698364
Cr       2.06922537       2.06913606      15.10163749  T      -0.61855279      -0.27642107      -0.42805224       0.00407147       0.02828002      -0.05346689     -10.15877247
Cr       8.86289692       5.94345331      12.46500301  F       0.00000000       0.00000000       0.00000000      -0.00830758      -0.08835435      -0.05030496     -10.28286362
Cr       3.08247628       6.67502072      13.70871296  T      -0.43323806       0.03620059      -0.54633647       0.01397431       0.03121204      -0.01063692     -10.22548103
Cr       9.80399924       2.84172328      13.87027727  T       0.38506393       0.32336477      -1.37453788       0.00762892       0.04971976      -0.01577145     -10.26020336
Cr       5.71679279       6.63623319      13.73391098  T      -0.42564888      -1.06393113      -1.20004562      -0.00344142       0.04741710      -0.01359414     -10.07305717
Cr      12.39155873       2.79679239      13.85691222  T      -0.27539886      -0.30086303       0.42954321      -0.01487908       0.01238674      -0.00890146     -10.27384758
Cr       4.48897943       1.18479707      13.72135395  T       1.07747139       0.23682160      -0.65979556      -0.02228621      -0.00305620       0.01013666     -10.42483330
Cr      11.07835399       5.05086716      13.79391878  T       1.33097305      -0.33829089      -0.44738694       0.01883569       0.02252048       0.00164674     -10.20005894
Cr       3.51657271       4.32285738       9.71681404  F       0.00000000       0.00000000       0.00000000      -0.08027354       0.92941338       0.88485247      -8.79867172
Cr      10.17413330       0.47911340      12.46500301  F       0.00000000       0.00000000       0.00000000       1.96921468      -0.29010057      -0.23534834     -10.04423714
Cr       0.93565130       4.34684753       9.71681404  F       0.00000000       0.00000000       0.00000000       0.66782022       2.14347506       1.29933774      -8.67221832
Cr       7.59321165       0.50310314      12.46500301  F       0.00000000       0.00000000       0.00000000      -2.47121024       1.02076864      -1.29781246     -10.14487934
Cr       2.20533633       2.09970903      12.46500301  F       0.00000000       0.00000000       0.00000000      -0.41384858      -1.86037445      -2.40753794     -10.45575333
Cr       8.86289692       5.94345331       9.71681404  F       0.00000000       0.00000000       0.00000000      -0.94604492      -0.42024285       1.52850103      -8.98263931
Cr       3.14098763       6.70049572      11.09090900  F       0.00000000       0.00000000       0.00000000      -0.48100090      -0.06917017      -1.73928809     -10.44875908
Cr       9.79854774       2.85675168      11.09090900  F       0.00000000       0.00000000       0.00000000      -0.59994990      -0.55547249       1.48668993      -8.89570236
Cr       5.72190905       6.67650604      11.09090900  F       0.00000000       0.00000000       0.00000000       0.41177619      -0.59748989      -1.60272884     -10.50299549
Cr      12.37946892       2.83276200      11.09090900  F       0.00000000       0.00000000       0.00000000      -0.04843368      -1.31454217       1.65126669      -8.98954105
Cr       4.45222378       1.23615611      11.09090900  F       0.00000000       0.00000000       0.00000000       0.95699668      -1.38428390       1.59024239      -9.37195873
Cr      11.10978413       5.07990026      11.09090900  F       0.00000000       0.00000000       0.00000000       0.39648798       2.07358146      -0.13603424      -9.87833595
N        3.72443295       2.16543648      18.20321154  T      -2.96421010      -2.47486463      -2.24448941       0.00024635       0.01464349       0.02106082      -7.03005600
N       10.73662125       6.25209927      15.44863709  T      -0.05462565      -0.14962521       0.76853804       0.03242027       0.01048219      -0.02413135      -8.58061409
N        1.91341889       6.08315136      15.13056793  T       0.32165418       0.57193254       0.71713654       0.03827155       0.01280950       0.01047227      -8.28207207
N        8.64273002       1.95098449      17.98350138  T       0.41280078      -0.78298200      -2.30189519       0.01616044       0.00491625      -0.00618047      -7.73133230
N        0.40202586       2.01732442      18.10964548  T       1.36862808       0.04986526      -1.60456568       0.04422969      -0.01219374       0.01499939      -7.66014671
N        6.82197963       6.09659636      15.23275207  T      -0.23437863       0.77411438       0.41882037       0.02443412      -0.00686380      -0.06144109      -8.63576317
N        2.39927153       0.79528698      16.49177234  T       0.29837310       0.09342766       0.44240864      -0.04093623      -0.03880024      -0.02261160      -8.47505569
N        8.73646146       4.37762906      16.57511838  T       0.70448009      -0.21297655      -1.45603333       0.01839036       0.01497619       0.01258940      -7.80167723
N        4.49450579       5.15507159      16.57284795  T      -0.54622778       2.27392514      -0.41169498       0.02586266      -0.00034714      -0.02544194      -8.02716064
N       11.31817837       1.02127367      16.73698135  T      -0.35288664      -0.38479428       0.24078628       0.01456967      -0.01526162       0.00248889      -8.44145584
N        6.32581711       0.85987207      16.59492799  T       0.01812506      -1.07268498       0.09676869       0.02726800      -0.03586963       0.05381761      -8.53634262
N       13.07591859       4.96894916      16.47681692  T      -0.74826433      -0.35256133      -1.01963027      -0.01395530       0.00640666      -0.01874846      -7.59265423
N        4.41320302       7.47980544      15.55791244  T      -0.00868440      -0.21153991       0.73838029      -0.00429395      -0.05927126       0.01568009      -8.62765217
N       11.15953777       3.49258859      17.72851225  T       0.15805320       0.27963128      -2.42131802       0.00203642       0.02483226      -0.05338943      -7.54633474
N        2.20214602       3.65065540      16.44247944  T       0.07969728      -0.55615930      -1.22270877       0.00823797       0.01647693       0.02438453      -8.35506535
N        8.61950061       7.46497848      16.71339025  T      -0.63755019       2.09274183      -0.94514135       0.00145470      -0.00835783      -0.00969711      -8.28881645
N        4.32705846       2.44529276      15.24851893  T      -0.19169989      -0.98255137       0.02388056       0.01123515      -0.00672328      -0.00057788      -8.18139362
N       10.91840553       6.40247297      12.46500301  F       0.00000000       0.00000000       0.00000000      -0.10691354      -0.94582629      -0.13786113      -8.37359619
N        2.09129524       5.87347078      12.46500301  F       0.00000000       0.00000000       0.00000000       0.18609622       0.04446797      -0.66424727      -8.39798546
N        8.91475868       1.93492052      15.27532153  T       0.83497923      -0.37897909      -0.59475933      -0.00493878       0.00387566       0.00680135      -8.37312031
N        0.21510714       2.32160494      15.25366990  T      -0.33863046       0.69783224      -0.24320645      -0.00648162       0.00908777       0.01668036      -8.35184288
N        6.96297979       6.18095827      12.46500301  F       0.00000000       0.00000000       0.00000000      -0.26755849       0.25034165      -0.06158400      -8.35534191
N        2.47354151       0.82736158      13.80567785  T       0.64169717       0.64326034       0.01665125      -0.01405233       0.03150177      -0.00014660      -8.44299316
N        9.05192758       4.65770099      13.86452279  T       0.55754444       1.07627366       0.24647357       0.05077121      -0.01397219      -0.00298902      -8.28906727
N        4.38960856       5.23353097      13.88733822  T      -0.59687444       0.24346482       0.12842642       0.00408816      -0.01279320       0.01575767      -8.45515156
N       11.16192486       1.27363543      13.80695059  T      -1.25904507      -0.00294497      -0.27791853      -0.02138156      -0.01376444      -0.01566678      -8.41162491
N        6.43375391       0.94357957      13.82259802  T       0.80294667      -0.81980440      -0.20168400      -0.02625699       0.00061560       0.00986400      -8.43349266
N       13.02938576       4.78451193      13.79429261  T       0.46246039      -0.26225900      -0.08302688       0.00586749      -0.01252466      -0.02025895      -8.20291901
N        4.43837357       7.43354893      12.46500301  F       0.00000000       0.00000000       0.00000000      -0.11070022       0.05983972       0.34009388      -8.94476032
N       11.12333264       3.58530502      15.09979434  T       0.09287871       0.08050372      -0.73412005      -0.00208189      -0.02092491       0.00249127      -8.74984360
N        2.23538300       3.58619647      13.82516862  T      -0.21331821       0.24206521      -0.08945222      -0.00314919      -0.00903917      -0.01482952      -8.98309040
N        8.85412351       7.37418765      13.96380630  T       0.31043235      -0.27850091      -0.23666489      -0.03549220      -0.00277132      -0.01184171      -9.07924461
N        4.26084566       2.55872869      12.46500301  F       0.00000000       0.00000000       0.00000000      -0.05902702      -0.51485306      -0.63808715      -8.52320290
N       10.91840553       6.40247297       9.71681404  F       0.00000000       0.00000000       0.00000000      -1.76673043      -0.23001818       0.71384346      -7.57749844
N        2.09129524       5.87347078       9.71681404  F       0.00000000       0.00000000       0.00000000       0.40372688      -2.37134314       0.89802766      -7.44594526
N        8.74885559       2.02972674      12.46500301  F       0.00000000       0.00000000       0.00000000       0.76117641      -0.16614974      -0.82752490      -8.63411617
N        0.30541945       2.33721423      12.46500301  F       0.00000000       0.00000000       0.00000000      -0.52717322       0.45633727      -0.58052570      -8.43541050
N        6.96297979       6.18095827       9.71681404  F       0.00000000       0.00000000       0.00000000       1.63058305       0.92253602       0.47197866      -7.35523129
N        2.39671469       0.77713639      11.09090900  F       0.00000000       0.00000000       0.00000000       2.16301250       2.28602982       1.87662482      -5.72665548
N        9.05427456       4.62088060      11.09090900  F       0.00000000       0.00000000       0.00000000       0.41199845       0.29437205      -0.85863876      -8.84444332
N        4.56626511       5.14988232      11.09090900  F       0.00000000       0.00000000       0.00000000      -0.57442093      -0.44664022      -0.29403880      -8.52022171
N       11.22382545       1.30613840      11.09090900  F       0.00000000       0.00000000       0.00000000      -0.58017683       1.62799978       0.42586017      -7.67910910
N        6.35214090       0.99865079      11.09090900  F       0.00000000       0.00000000       0.00000000      -1.17104506      -0.33657318       1.58868575      -6.76867723
N       13.00970078       4.84239483      11.09090900  F       0.00000000       0.00000000       0.00000000      -0.02158564      -1.25385058      -0.78108394      -8.85639668
N        4.43837357       7.43354893       9.71681404  F       0.00000000       0.00000000       0.00000000      -0.13796163       0.77420539       0.90420997      -7.69383860
N       11.09593391       3.58980465      12.46500301  F       0.00000000       0.00000000       0.00000000      -0.08771811      -0.15405898      -1.51070523      -9.28043938
N        2.21918678       3.58980465      11.09090900  F       0.00000000       0.00000000       0.00000000      -0.08116969       0.41013300      -0.82048702      -8.86340618
N        8.87674713       7.43354893      11.09090900  F       0.00000000       0.00000000       0.00000000       0.22736700      -0.47692120      -0.71816218      -9.26021481
C        8.08694993      -0.21009823      20.69041131  T       0.82128893      -0.82438961       3.99052089       0.00250840      -0.06401911      -0.06234694      -9.16799927
O        6.85018615      -0.41876761      20.98691512  T      -0.71044795      -1.25433937      -0.03896211      -0.01233006      -0.03295027      -0.02069288      -6.75152969
H        8.76515663      -0.01030939      21.53627211  T       0.56413529      -0.16975967       0.18368452       0.06733108       0.03053413      -0.01239505      -3.59713674
