87
Lattice="13.315120697021484 -0.0 -8.000000134899068e-16 -1.2000000467046398e-15 7.687488555908203 -2.748189687728882 -0.0 3.700000002833815e-15 30.230087280273438" Properties=species:S:1:pos:R:3:move_mask:L:1:momenta:R:3:forces:R:3:energies:R:1 adsorbate_info="_JSON {\"site\": {\"coordinates\": [1.6358234899999986, 1.7380198833333333, 17.503351846666668], \"connectivity\": 3, \"topology\": [4, 40, 42], \"n_vector\": [-0.09779936565434341, -0.12779464210070654, 0.9869669769186608], \"h_vector\": [0.9922768745583174, -0.1240427515688728, 0.0], \"site_formula\": {\"Cr\": 1, \"N\": 2}}, \"smiles\": \"S1S\", \"mdf\": 1.1356382055184298, \"adsorbate_formula\": \"CHO\"}" bond_change_count=0 energy=-770.2906494140625 stress="0.0005306214443407953 1.0314975952496752e-05 2.8189786462462507e-05 1.0314975952496752e-05 0.0004197422240395099 -2.1983216356602497e-05 2.8189786462462507e-05 -2.1983216356602497e-05 0.0003630371065810323" free_energy=-770.2906494140625 pbc="T T F"
Cr       3.52464434       4.19005555      15.25614030  T      -0.32526582      -0.95860999       1.53488212       0.00961560       0.00803195       0.00026721     -10.25973511
Cr      10.14337697       0.15485516      17.91097593  T      -0.81142173      -0.58166867       0.97076293       0.00493211       0.03781085      -0.05968282      -9.33471203
Cr       0.90930798       4.37357878      15.20833084  T      -0.64803518       1.00965731       1.95008502       0.00063744       0.00900996      -0.01400775     -10.37686157
Cr       7.64605525       0.36792625      17.87808304  T       2.23718293      -0.35662227      -1.07685924      -0.05506227       0.00475019       0.03394079      -9.56301498
Cr       2.31175037       2.20282889      17.57812567  T       1.43188721       3.30362501      -7.05012587      -0.01240259       0.05755207       0.06697482      -9.72123432
Cr       8.61771865       5.63344075      15.52902453  T      -0.15637997      -1.52733864       2.12886046       0.00613762       0.00397930       0.03348100     -10.23176765
Cr       2.95813024       6.74611184      16.42139683  T       1.69823176      -1.64658398      -3.35681072      -0.01470603      -0.00531523      -0.02407514      -9.00084305
Cr       9.46988244       2.85491899      16.97186553  T      -1.20646418       1.23941397       3.28746236      -0.01902726      -0.05074693       0.00111300     -10.42288017
Cr       5.55572362       6.49409642      16.42727072  T      -0.03070645      -2.93524441      -1.80871273       0.03368872       0.02693442      -0.07308027      -8.88991737
Cr      12.47123754       2.44624636      16.93192655  T       1.49425763       0.15305225       3.83708456      -0.01462482      -0.04911862       0.00514024     -10.24375248
Cr       4.50779485       1.20641638      16.63033183  T       0.70281307       2.48562732       2.57083212      -0.01164687       0.04488254       0.01021075     -10.04424858
Cr      11.35430603       4.79000698      16.46325466  T       1.25072394      -0.39455761       0.53912831      -0.01749915      -0.03397846      -0.03061157      -9.62826443
Cr       3.51657271       4.32285738      12.46500301  F       0.00000000       0.00000000       0.00000000       0.23963416       0.01334206      -0.05791525     -10.21122265
Cr      10.19254194       0.51068574      15.22310017  T       1.17809317       0.60507491       0.74905270       0.01006687      -0.02488647       0.02091496     -10.26274490
Cr       0.93565130       4.34684753      12.46500301  F       0.00000000       0.00000000       0.00000000      -0.00123227       0.09393853      -0.04077679     -10.30665588
Cr       7.64413630       0.50766512      15.17943391  T       0.11540740      -0.07688495       1.66251600      -0.00449690      -0.01021683      -0.01873731     -10.10964012
Cr       2.07941637       2.07058926      15.09458737  T       0.05527654      -0.00095565       0.15848061      -0.01821172      -0.04673845      -0.03443927     -10.17309570
Cr       8.86289692       5.94345331      12.46500301  F       0.00000000       0.00000000       0.00000000       0.07291263      -0.09188068       0.00647451     -10.30335999
Cr       3.10123135       6.66466026      13.71170045  T      -0.59933005      -0.97812906      -0.86316657      -0.01167178      -0.02730155      -0.01266289     -10.20308399
Cr       9.79520498       2.86526602      13.88163201  T       0.08418130      -1.03875099       0.86169560      -0.01002103       0.04240225      -0.03878947     -10.24093342
Cr       5.73202812       6.61979257      13.71603110  T       0.11417132      -0.30617056      -2.00001944      -0.00511673       0.02553481       0.03590903     -10.10699177
Cr      12.38137755       2.77620581      13.85102870  T       0.59635817      -0.72982336       0.19547901       0.02469489       0.02646351       0.03098156     -10.27551746
Cr       4.49617366       1.20618165      13.73435159  T      -0.67066246      -0.52496924      -0.78310602      -0.04699045      -0.01328894       0.01633748     -10.39777756
Cr      11.05679529       5.06246958      13.77974252  T      -0.01753992       0.51016417      -0.97074657      -0.00397056      -0.02004197       0.02906913     -10.28005123
Cr       3.51657271       4.32285738       9.71681404  F       0.00000000       0.00000000       0.00000000      -0.08188091       0.93051773       0.88363594      -8.80008888
Cr      10.17413330       0.47911340      12.46500301  F       0.00000000       0.00000000       0.00000000       1.96023512      -0.28664798      -0.23516357     -10.06293392
Cr       0.93565130       4.34684753       9.71681404  F       0.00000000       0.00000000       0.00000000       0.66363531       2.14917326       1.31015313      -8.67368126
Cr       7.59321165       0.50310314      12.46500301  F       0.00000000       0.00000000       0.00000000      -2.49536872       1.02937806      -1.27482867     -10.14590836
Cr       2.20533633       2.09970903      12.46500301  F       0.00000000       0.00000000       0.00000000      -0.40259078      -1.89304090      -2.40632343     -10.46193695
Cr       8.86289692       5.94345331       9.71681404  F       0.00000000       0.00000000       0.00000000      -0.93752897      -0.42444485       1.52776647      -8.98277187
Cr       3.14098763       6.70049572      11.09090900  F       0.00000000       0.00000000       0.00000000      -0.48735756      -0.04112631      -1.75543737     -10.45243454
Cr       9.79854774       2.85675168      11.09090900  F       0.00000000       0.00000000       0.00000000      -0.60348582      -0.57942933       1.53238344      -8.90012646
Cr       5.72190905       6.67650604      11.09090900  F       0.00000000       0.00000000       0.00000000       0.42735916      -0.53788698      -1.64074397     -10.49891853
Cr      12.37946892       2.83276200      11.09090900  F       0.00000000       0.00000000       0.00000000      -0.05403602      -1.31367850       1.65760684      -8.98867321
Cr       4.45222378       1.23615611      11.09090900  F       0.00000000       0.00000000       0.00000000       0.96343440      -1.43670380       1.64141738      -9.37915516
Cr      11.10978413       5.07990026      11.09090900  F       0.00000000       0.00000000       0.00000000       0.40453133       2.13318038      -0.08501908      -9.88353634
N        3.92929036       2.25383638      18.07397734  T      -2.47924630      -1.54373946      -0.87415730      -0.02380586       0.01180494       0.00705266      -6.98664236
N       10.93416445       6.27904278      15.36554136  T      -0.01653294      -0.30471222       0.38036466       0.00155076      -0.01054591       0.03758509      -8.53065491
N        1.98295036       6.00322713      15.16080818  T       0.08853026       0.19038957       0.42474061      -0.01604104       0.01939371       0.03715019      -8.30092049
N        8.53555970       1.96070149      18.05550460  T      -0.28387948      -0.79784811      -1.47281635       0.01672614       0.03932363      -0.01602751      -7.78622103
N        0.54566961       1.95788729      18.32045268  T       1.68620020      -1.37564655      -0.36832405       0.00568357      -0.00023681       0.00148723      -8.44622135
N        6.79485553       5.94131583      15.20648085  T      -0.67089868       0.24262329       0.71835474      -0.01318904       0.05981988       0.06395879      -8.71847439
N        2.40504734       0.78429265      16.48363133  T       0.46101485       0.37190073       0.24799571      -0.06259716       0.01853469       0.00783950      -8.37509441
N        8.71892644       4.38261605      16.68410718  T       1.03465723       0.15024601      -0.90884761       0.02033299       0.01745644      -0.01857752      -8.06921387
N        4.29090914       5.29852735      16.66076388  T      -0.66019920       2.13998687      -0.57734799      -0.00230880       0.00578314      -0.01210904      -7.92536163
N       11.29839786       1.10271504      16.73710852  T      -0.40427477      -0.69682035       0.47202681      -0.01266932      -0.01863852       0.03222718      -8.42615032
N        6.35440668       0.82376712      16.60745761  T       0.01942378      -0.86531454       0.37094609      -0.02430090       0.02048010       0.00950524      -8.66695118
N       13.02988529       4.81625816      16.50922599  T      -0.96143570      -0.64911531      -0.85748632      -0.02848823      -0.00847247       0.02605641      -7.55525160
N        4.38982349       7.51331071      15.48834327  T       0.35761436      -0.31338766       0.79325362      -0.01556250      -0.02259275       0.03900450      -8.61092758
N       11.09196287       3.48280194      17.77392620  T       0.30159284       0.10158982      -1.61986575       0.01475187      -0.03414977       0.03258324      -7.54543257
N        2.15173454       3.60836515      16.46958703  T       0.07882821       0.05780292      -1.15306977      -0.01818219      -0.01992027       0.00070998      -8.30884075
N        8.78934673       7.27796169      16.42799548  T      -0.30275743       0.70486292      -1.82299834       0.01908108      -0.01917195      -0.00424469      -7.43173885
N        4.29910867       2.48876855      15.22196140  T      -0.43033507      -0.69373524      -0.08629829       0.02730125      -0.00177497       0.01153559      -8.13050175
N       10.91840553       6.40247297      12.46500301  F       0.00000000       0.00000000       0.00000000      -0.02776438      -0.85012472      -0.30874178      -8.28935146
N        2.09129524       5.87347078      12.46500301  F       0.00000000       0.00000000       0.00000000       0.19361456       0.05422547      -0.56166351      -8.37259769
N        8.90252555       1.98668011      15.29727803  T       0.79972016      -0.51653789      -0.04465302      -0.01672366      -0.00887041      -0.04774234      -8.37808704
N        0.20557313       2.29698871      15.26391110  T      -0.83911764       0.63947504      -0.21605594      -0.01139673       0.02864230       0.00469520      -8.30787754
N        6.96297979       6.18095827      12.46500301  F       0.00000000       0.00000000       0.00000000      -0.25228912       0.01666313      -0.25136924      -8.34654617
N        2.47670211       0.82442121      13.79914809  T       1.05689607       0.50094707       0.15647643      -0.02435261       0.04685462      -0.01896992      -8.43711662
N        9.10890474       4.69445078      13.89705066  T       0.46255241       0.77597237      -0.16194991      -0.00838843       0.01582554      -0.03433519      -8.30967331
N        4.40256990       5.22392922      13.87935615  T      -1.00778812       0.30295615       0.24294962      -0.02105826       0.01827792      -0.00609082      -8.48119926
N       11.14628984       1.27866472      13.80527397  T      -0.76182665       0.11227771      -0.47888973       0.00488526      -0.01760951      -0.01976985      -8.41533852
N        6.43015798       0.94453540      13.81768399  T       0.93133420      -0.97016430      -0.09505807       0.01051163       0.02435783       0.00129293      -8.46662426
N       13.03692487       4.77426766      13.79237667  T       0.25265179      -0.78401843      -0.13817334      -0.00075036      -0.03328192       0.02187858      -8.15585041
N        4.43837357       7.43354893      12.46500301  F       0.00000000       0.00000000       0.00000000       0.06647570       0.05182069       0.27180925      -9.00768566
N       11.11432198       3.58105324      15.11090488  T       0.40923441       0.12431012      -0.73025260       0.03346983       0.00060692       0.01623243      -8.74979496
N        2.22688089       3.58526488      13.81801728  T      -0.07557794       0.23564691      -0.33165102      -0.02947015       0.00240883      -0.00566809      -8.99410248
N        8.86251486       7.41731986      13.83103840  T       0.16596968      -0.07577573       0.02364498       0.06633475       0.04523117       0.04045752      -9.06295395
N        4.26084566       2.55872869      12.46500301  F       0.00000000       0.00000000       0.00000000      -0.04729217      -0.48933452      -0.68054694      -8.53717041
N       10.91840553       6.40247297       9.71681404  F       0.00000000       0.00000000       0.00000000      -1.79016399      -0.21386723       0.75757420      -7.58270788
N        2.09129524       5.87347078       9.71681404  F       0.00000000       0.00000000       0.00000000       0.40445203      -2.37038183       0.90416569      -7.44573545
N        8.74885559       2.02972674      12.46500301  F       0.00000000       0.00000000       0.00000000       0.76820391      -0.13371152      -0.80376762      -8.61847115
N        0.30541945       2.33721423      12.46500301  F       0.00000000       0.00000000       0.00000000      -0.55251241       0.42735967      -0.57307303      -8.44114971
N        6.96297979       6.18095827       9.71681404  F       0.00000000       0.00000000       0.00000000       1.63417125       0.93435472       0.48865199      -7.35694742
N        2.39671469       0.77713639      11.09090900  F       0.00000000       0.00000000       0.00000000       2.16088629       2.27986455       1.87009835      -5.72506237
N        9.05427456       4.62088060      11.09090900  F       0.00000000       0.00000000       0.00000000       0.39979821       0.25391901      -0.86862838      -8.84479332
N        4.56626511       5.14988232      11.09090900  F       0.00000000       0.00000000       0.00000000      -0.56015491      -0.45510304      -0.28765380      -8.51701832
N       11.22382545       1.30613840      11.09090900  F       0.00000000       0.00000000       0.00000000      -0.58731699       1.63791513       0.43191904      -7.67801094
N        6.35214090       0.99865079      11.09090900  F       0.00000000       0.00000000       0.00000000      -1.18156826      -0.33640963       1.58667016      -6.76624107
N       13.00970078       4.84239483      11.09090900  F       0.00000000       0.00000000       0.00000000      -0.03499600      -1.25454891      -0.78656137      -8.85877609
N        4.43837357       7.43354893       9.71681404  F       0.00000000       0.00000000       0.00000000      -0.13569525       0.83072388       0.87443388      -7.64996386
N       11.09593391       3.58980465      12.46500301  F       0.00000000       0.00000000       0.00000000      -0.07430383      -0.24612471      -1.58152330      -9.27342701
N        2.21918678       3.58980465      11.09090900  F       0.00000000       0.00000000       0.00000000      -0.06494290       0.39731315      -0.85371161      -8.86236000
N        8.87674713       7.43354893      11.09090900  F       0.00000000       0.00000000       0.00000000       0.21677095      -0.36519796      -0.94640136      -9.24007797
C        0.44260657       1.34325768      19.49489836  T      -0.43809097       1.23426354       1.06488210       0.08431375      -0.03322220       0.02599776      -9.23655224
O        1.34306047       0.67683582      20.10734084  T      -2.04047965      -0.79527444       0.95377318       0.00919044      -0.03339934       0.00610906      -6.70213699
H       -0.55253910       1.43246615      19.97211083  T      -1.40287214       0.69414985       1.43092419      -0.03280592      -0.03267905       0.03701197      -3.54581475
