87
Lattice="13.315120697021484 -0.0 -8.000000134899068e-16 -1.2000000467046398e-15 7.687488555908203 -2.748189687728882 -0.0 3.700000002833815e-15 30.230087280273438" Properties=species:S:1:pos:R:3:move_mask:L:1:momenta:R:3:forces:R:3:energies:R:1 adsorbate_info="_JSON {\"site\": {\"coordinates\": [7.397289276666666, 7.433548888636068, 16.129256644090376], \"connectivity\": 3, \"topology\": [3, 8, 51], \"n_vector\": [-0.1331551598016115, 0.21545336633983858, 0.967393172578264], \"h_vector\": [0.9723955722915301, 0.23333849015502708, 0.0], \"site_formula\": {\"Cr\": 2, \"N\": 1}}, \"smiles\": \"S1S\", \"mdf\": 1.5057736562628279, \"adsorbate_formula\": \"CHO\"}" bond_change_count=0 energy=-770.4358520507812 stress="0.0005921329720877111 1.8948869183077477e-05 2.476307963661384e-05 1.8948869183077477e-05 0.0004181655531283468 1.756328742885671e-06 2.476307963661384e-05 1.756328742885671e-06 0.00039697211468592286" free_energy=-770.4358520507812 pbc="T T F"
Cr       3.62645848       4.10615751      15.25303588  T       0.47766732      -1.80322153       0.65238159      -0.00894815       0.00427964       0.02524861     -10.20874786
Cr      10.14597124       0.29558272      17.91130982  T      -0.60988382       0.05889232      -0.64973823       0.02181095       0.01201235       0.01400462      -9.23710155
Cr       0.93314881       4.42627657      15.20839740  T      -0.81988612      -0.14859388       1.46191387       0.04276600       0.00872746      -0.01906800     -10.44662380
Cr       7.61201184       0.41216540      17.82936819  T       1.43870629       2.22704871      -1.68838548      -0.06429428      -0.01466036      -0.00161064      -9.41823387
Cr       2.15657544       2.22196656      17.58287347  T      -1.97477302       1.41003396      -2.52570524      -0.02521396       0.02692352       0.07536340      -9.81348610
Cr       8.70696106       5.65653569      15.44128394  T      -0.74092606      -0.76491154       2.15283481      -0.04853329       0.04957259       0.03891891     -10.08827209
Cr       3.07926411       6.49127997      16.41106138  T      -1.93391391       0.09958687      -1.18502486      -0.05554569      -0.03288355      -0.04333913      -8.69790745
Cr       9.51709391       2.89307255      16.87362971  T      -0.74211746       0.95578070       2.14721339       0.00801083       0.02721700       0.02415639     -10.47500610
Cr       5.62121753       6.54304168      16.49589078  T      -2.14321777      -2.70530625      -3.77345518       0.07157364      -0.05644310      -0.01703501      -9.31318855
Cr      12.53651087       2.38162317      16.94489211  T       2.36932799      -0.41983129       3.19149131       0.03630532      -0.05033657       0.05341190     -10.46639729
Cr       4.42116283       1.17588469      16.72182309  T       1.94556609       1.63047478       1.12220937      -0.02096832       0.01711297       0.00363335     -10.02707386
Cr      11.42016091       4.81204932      16.46474804  T       1.46213616      -1.22379288      -1.72256457       0.01336902      -0.01238295       0.02422839      -9.67569065
Cr       3.51657271       4.32285738      12.46500301  F       0.00000000       0.00000000       0.00000000       0.27017146      -0.01364209      -0.07036340     -10.22412300
Cr      10.21841616       0.50405930      15.19337179  T      -0.20100260      -0.40997526       0.29322406       0.01647562      -0.02765831       0.00530677     -10.22855759
Cr       0.93565130       4.34684753      12.46500301  F       0.00000000       0.00000000       0.00000000       0.02169579       0.06119150      -0.05718306     -10.30292511
Cr       7.62369616       0.48954386      15.18780557  T      -0.65717181       0.39702201      -0.28418857       0.00002930       0.00097150      -0.03959447     -10.10571003
Cr       2.07542366       2.07737399      15.09341887  T       0.29849639       0.46566956       0.33679987      -0.00681388      -0.00978303      -0.01391435     -10.17005634
Cr       8.86289692       5.94345331      12.46500301  F       0.00000000       0.00000000       0.00000000       0.00882187      -0.05585885      -0.06476043     -10.28881931
Cr       3.08445500       6.67968466      13.70936657  T      -0.30212295       0.30966471      -1.26707308       0.00340915      -0.02028691       0.03259262     -10.22249794
Cr       9.80158129       2.86155630      13.85741884  T      -0.67295000      -0.46734153       0.71408397      -0.00185329       0.01663302       0.02635427     -10.25480652
Cr       5.72178935       6.64320605      13.72527884  T      -0.73622632      -0.59376366      -0.38084012       0.00840870      -0.02498865       0.02652756     -10.06377602
Cr      12.38640832       2.80963221      13.84689697  T       0.98488851       0.01552180      -0.39500713       0.03465894      -0.03777981       0.02357954     -10.29017353
Cr       4.48792521       1.18998416      13.73117168  T      -0.40974620      -0.04727010      -0.93456769      -0.02271256      -0.00309676      -0.03334425     -10.42143917
Cr      11.07239314       5.06048771      13.79343586  T      -0.38422872      -0.20462527       0.94192788       0.03205431      -0.00007552      -0.01073758     -10.20796776
Cr       3.51657271       4.32285738       9.71681404  F       0.00000000       0.00000000       0.00000000      -0.08210188       0.93188977       0.88479072      -8.79867077
Cr      10.17413330       0.47911340      12.46500301  F       0.00000000       0.00000000       0.00000000       1.97657824      -0.29156980      -0.24035454     -10.05928707
Cr       0.93565130       4.34684753       9.71681404  F       0.00000000       0.00000000       0.00000000       0.67010009       2.14476156       1.30066609      -8.67253780
Cr       7.59321165       0.50310314      12.46500301  F       0.00000000       0.00000000       0.00000000      -2.50520706       1.00490999      -1.28264523     -10.14586258
Cr       2.20533633       2.09970903      12.46500301  F       0.00000000       0.00000000       0.00000000      -0.40399539      -1.86105251      -2.40104675     -10.45848465
Cr       8.86289692       5.94345331       9.71681404  F       0.00000000       0.00000000       0.00000000      -0.95297903      -0.42406768       1.52922034      -8.98255539
Cr       3.14098763       6.70049572      11.09090900  F       0.00000000       0.00000000       0.00000000      -0.48814413      -0.06495657      -1.75319946     -10.44853783
Cr       9.79854774       2.85675168      11.09090900  F       0.00000000       0.00000000       0.00000000      -0.60181892      -0.56329221       1.46083236      -8.89087486
Cr       5.72190905       6.67650604      11.09090900  F       0.00000000       0.00000000       0.00000000       0.42421716      -0.57232612      -1.62666619     -10.50503826
Cr      12.37946892       2.83276200      11.09090900  F       0.00000000       0.00000000       0.00000000      -0.03406447      -1.31977987       1.63355494      -8.98583508
Cr       4.45222378       1.23615611      11.09090900  F       0.00000000       0.00000000       0.00000000       0.96329248      -1.39563513       1.62681508      -9.37766647
Cr      11.10978413       5.07990026      11.09090900  F       0.00000000       0.00000000       0.00000000       0.39940813       2.10634065      -0.12245047      -9.88103962
N        3.72779835       2.15913504      18.20466894  T      -2.38285164      -0.99713681      -1.26219103      -0.05159628      -0.01098302      -0.05130494      -7.01703787
N       10.74281499       6.24879443      15.42520870  T      -0.09218639      -0.00378140       0.33236715       0.02395626      -0.00772265      -0.01032360      -8.59347057
N        1.92671820       6.06670662      15.13762670  T       0.49079628       0.59627679       0.36927900       0.05624691       0.04777592       0.01272395      -8.28659630
N        8.65267398       1.96944010      17.99092916  T       0.43650627      -0.32637704      -1.29421741      -0.00499729      -0.02872455      -0.01658142      -7.69176579
N        0.41272293       2.01112790      18.09264964  T       1.71684712       0.06175625      -1.80867572      -0.02633512       0.02995613      -0.01065278      -7.65148544
N        6.83692415       6.13026300      15.23161720  T      -0.59489219       0.32156055       0.38579962       0.01352968       0.01493317       0.00088602      -8.65149879
N        2.39485776       0.79305414      16.48367671  T       0.14232414      -0.17719588       0.55054181      -0.00609601      -0.03161666      -0.04090648      -8.46501541
N        8.72275540       4.38718123      16.61474513  T       0.89376414      -0.04158588      -1.51258314       0.01821953      -0.02131806      -0.03311205      -7.85569763
N        4.51109329       5.17167199      16.56920004  T      -0.94612004       2.34873794       0.03220631       0.00820521       0.01262304      -0.00560975      -8.01584530
N       11.33528883       1.02470749      16.72159057  T      -0.73285719      -0.48502455       0.31808145      -0.01382849      -0.00021517       0.01884357      -8.43046093
N        6.32569308       0.86162314      16.60209566  T       0.45388881      -0.54902093       0.31595643       0.02323703       0.01097953      -0.00623378      -8.56453705
N       13.07783164       4.96870574      16.48599196  T      -0.79835719       0.01893586      -1.30111956      -0.03681925       0.02203214      -0.00049436      -7.62798691
N        4.39154013       7.47776086      15.55843862  T       0.03693901       0.20571629       1.09499363      -0.01954147       0.03323869      -0.03655227      -8.63933563
N       11.15576428       3.49550995      17.72162677  T       0.17972064       0.58387677      -1.91746434       0.01749058       0.00997058      -0.00001264      -7.54326916
N        2.21092499       3.65024387      16.43709736  T       0.10724337      -0.44781413      -1.27172880       0.01134830       0.02959657       0.00058076      -8.35280132
N        8.67490772       7.46060834      16.67965553  T      -1.13765463       0.36740258       0.38094897      -0.00119536       0.00746458      -0.01088780      -8.29686451
N        4.34674892       2.45820983      15.25149550  T       0.26920309      -0.53878999      -0.23886023      -0.04004633      -0.02808532      -0.01926421      -8.18825531
N       10.91840553       6.40247297      12.46500301  F       0.00000000       0.00000000       0.00000000      -0.11329353      -0.89224392      -0.19680285      -8.33731461
N        2.09129524       5.87347078      12.46500301  F       0.00000000       0.00000000       0.00000000       0.20791024       0.05443469      -0.62727714      -8.39570522
N        8.90897587       1.95611475      15.26353244  T       0.91500941      -0.21088411      -0.03051504       0.00746500       0.00876963       0.00643482      -8.38607121
N        0.21949027       2.32510587      15.24388308  T      -0.40983785       0.54757452      -0.38040431       0.00354872       0.03088048       0.00355551      -8.34061527
N        6.96297979       6.18095827      12.46500301  F       0.00000000       0.00000000       0.00000000      -0.25573826       0.19327426      -0.08510081      -8.34721947
N        2.46904960       0.82499984      13.80240982  T       0.88422884       0.95354334       0.03259794       0.00832745       0.05846542       0.01302764      -8.44418812
N        9.06432820       4.67763578      13.88037952  T       0.40056325       0.54577866       0.07442648       0.01120800      -0.02744654       0.01666314      -8.29070759
N        4.40490571       5.23060766      13.88367156  T      -0.95771327       0.14614508       0.07847629      -0.02540362       0.04379281      -0.00655862      -8.44721699
N       11.16628605       1.27054460      13.79355629  T      -1.02665041      -0.21112006      -0.28699492      -0.03628820       0.01137343       0.03299415      -8.38804722
N        6.42830239       0.93973565      13.82136386  T       1.06328467      -1.01931745      -0.29645781       0.02453488       0.00545651       0.00183696      -8.43880272
N       13.02785312       4.78305457      13.79443729  T       0.43814718      -0.97060174      -0.07672325       0.02360691      -0.00310618      -0.00581816      -8.20077133
N        4.43837357       7.43354893      12.46500301  F       0.00000000       0.00000000       0.00000000      -0.10717674       0.11469623       0.35066831      -8.97065544
N       11.12413202       3.58290984      15.10192237  T      -0.06381533      -0.02200351      -1.01175864      -0.02123468       0.01298859      -0.00815210      -8.74435043
N        2.23702068       3.58961381      13.81961359  T       0.05866939      -0.02568514      -0.28967866       0.00947566      -0.01399351       0.00582249      -8.96295166
N        8.86709900       7.40905141      13.91728607  T      -0.18985387       0.03543442       0.03263735       0.02286308      -0.01362053      -0.01904288      -9.08696270
N        4.26084566       2.55872869      12.46500301  F       0.00000000       0.00000000       0.00000000      -0.05840370      -0.53182471      -0.64167309      -8.51764774
N       10.91840553       6.40247297       9.71681404  F       0.00000000       0.00000000       0.00000000      -1.77274537      -0.24580860       0.72269601      -7.57764912
N        2.09129524       5.87347078       9.71681404  F       0.00000000       0.00000000       0.00000000       0.40519354      -2.37521267       0.89870191      -7.44480419
N        8.74885559       2.02972674      12.46500301  F       0.00000000       0.00000000       0.00000000       0.75252301      -0.13833429      -0.82808578      -8.64032173
N        0.30541945       2.33721423      12.46500301  F       0.00000000       0.00000000       0.00000000      -0.52698076       0.46434951      -0.60630971      -8.42933846
N        6.96297979       6.18095827       9.71681404  F       0.00000000       0.00000000       0.00000000       1.63543963       0.93141180       0.48278993      -7.35454369
N        2.39671469       0.77713639      11.09090900  F       0.00000000       0.00000000       0.00000000       2.16421294       2.28814077       1.87608194      -5.72439384
N        9.05427456       4.62088060      11.09090900  F       0.00000000       0.00000000       0.00000000       0.40488821       0.28965563      -0.84136838      -8.84428501
N        4.56626511       5.14988232      11.09090900  F       0.00000000       0.00000000       0.00000000      -0.57375944      -0.44715276      -0.30408302      -8.51810932
N       11.22382545       1.30613840      11.09090900  F       0.00000000       0.00000000       0.00000000      -0.57731837       1.63757038       0.40491039      -7.67568111
N        6.35214090       0.99865079      11.09090900  F       0.00000000       0.00000000       0.00000000      -1.17262840      -0.33573022       1.59235883      -6.76662731
N       13.00970078       4.84239483      11.09090900  F       0.00000000       0.00000000       0.00000000      -0.03220630      -1.25105083      -0.78258348      -8.85440636
N        4.43837357       7.43354893       9.71681404  F       0.00000000       0.00000000       0.00000000      -0.14537452       0.79670578       0.90721816      -7.67249489
N       11.09593391       3.58980465      12.46500301  F       0.00000000       0.00000000       0.00000000      -0.10358676      -0.12029565      -1.52061486      -9.30512905
N        2.21918678       3.58980465      11.09090900  F       0.00000000       0.00000000       0.00000000      -0.08247063       0.41172677      -0.83469748      -8.86102581
N        8.87674713       7.43354893      11.09090900  F       0.00000000       0.00000000       0.00000000       0.20321274      -0.40757045      -0.78346312      -9.24867344
C        8.10034361       7.66416076      17.87935512  T       1.20125735      -0.28939164      -0.24013929      -0.00149369      -0.08736452       0.02514249      -9.13347244
O        6.85623237       7.49069752      18.16071136  T       1.44408447       1.94143721       0.78246197       0.05209804      -0.05094437       0.01348963      -6.75259638
H        8.75745678       7.99513661      18.70408564  T       0.95719236      -0.63977289       0.51111256      -0.00214592      -0.06188573      -0.06574959      -3.60581565
